
                                 *****************
                                 * O   R   C   A *
                                 *****************

                                            #,                                       
                                            ###                                      
                                            ####                                     
                                            #####                                    
                                            ######                                   
                                           ########,                                 
                                     ,,################,,,,,                         
                               ,,#################################,,                 
                          ,,##########################################,,             
                       ,#########################################, ''#####,          
                    ,#############################################,,   '####,        
                  ,##################################################,,,,####,       
                ,###########''''           ''''###############################       
              ,#####''   ,,,,##########,,,,          '''####'''          '####       
            ,##' ,,,,###########################,,,                        '##       
           ' ,,###''''                  '''############,,,                           
         ,,##''                                '''############,,,,        ,,,,,,###''
      ,#''                                            '''#######################'''  
     '                                                          ''''####''''         
             ,#######,   #######,   ,#######,      ##                                
            ,#'     '#,  ##    ##  ,#'     '#,    #''#        ######   ,####,        
            ##       ##  ##   ,#'  ##            #'  '#       #        #'  '#        
            ##       ##  #######   ##           ,######,      #####,   #    #        
            '#,     ,#'  ##    ##  '#,     ,#' ,#      #,         ##   #,  ,#        
             '#######'   ##     ##  '#######'  #'      '#     #####' # '####'        



                  #######################################################
                  #                        -***-                        #
                  #          Department of theory and spectroscopy      #
                  #    Directorship and core code : Frank Neese         #
                  #        Max Planck Institute fuer Kohlenforschung    #
                  #                Kaiser Wilhelm Platz 1               #
                  #                 D-45470 Muelheim/Ruhr               #
                  #                      Germany                        #
                  #                                                     #
                  #                  All rights reserved                #
                  #                        -***-                        #
                  #######################################################


                         Program Version 5.0.3 -  RELEASE  -


 With contributions from (in alphabetic order):
   Daniel Aravena         : Magnetic Suceptibility
   Michael Atanasov       : Ab Initio Ligand Field Theory (pilot matlab implementation)
   Alexander A. Auer      : GIAO ZORA, VPT2 properties, NMR spectrum
   Ute Becker             : Parallelization
   Giovanni Bistoni       : ED, misc. LED, open-shell LED, HFLD
   Martin Brehm           : Molecular dynamics
   Dmytro Bykov           : SCF Hessian
   Vijay G. Chilkuri      : MRCI spin determinant printing, contributions to CSF-ICE
   Dipayan Datta          : RHF DLPNO-CCSD density
   Achintya Kumar Dutta   : EOM-CC, STEOM-CC
   Dmitry Ganyushin       : Spin-Orbit,Spin-Spin,Magnetic field MRCI
   Miquel Garcia          : C-PCM and meta-GGA Hessian, CC/C-PCM, Gaussian charge scheme
   Yang Guo               : DLPNO-NEVPT2, F12-NEVPT2, CIM, IAO-localization
   Andreas Hansen         : Spin unrestricted coupled pair/coupled cluster methods
   Benjamin Helmich-Paris : MC-RPA, TRAH-SCF, COSX integrals
   Lee Huntington         : MR-EOM, pCC
   Robert Izsak           : Overlap fitted RIJCOSX, COSX-SCS-MP3, EOM
   Marcus Kettner         : VPT2
   Christian Kollmar      : KDIIS, OOCD, Brueckner-CCSD(T), CCSD density, CASPT2, CASPT2-K
   Simone Kossmann        : Meta GGA functionals, TD-DFT gradient, OOMP2, MP2 Hessian
   Martin Krupicka        : Initial AUTO-CI
   Lucas Lang             : DCDCAS
   Marvin Lechner         : AUTO-CI (C++ implementation), FIC-MRCC
   Dagmar Lenk            : GEPOL surface, SMD
   Dimitrios Liakos       : Extrapolation schemes; Compound Job, initial MDCI parallelization
   Dimitrios Manganas     : Further ROCIS development; embedding schemes
   Dimitrios Pantazis     : SARC Basis sets
   Anastasios Papadopoulos: AUTO-CI, single reference methods and gradients
   Taras Petrenko         : DFT Hessian,TD-DFT gradient, ASA, ECA, R-Raman, ABS, FL, XAS/XES, NRVS
   Peter Pinski           : DLPNO-MP2, DLPNO-MP2 Gradient
   Christoph Reimann      : Effective Core Potentials
   Marius Retegan         : Local ZFS, SOC
   Christoph Riplinger    : Optimizer, TS searches, QM/MM, DLPNO-CCSD(T), (RO)-DLPNO pert. Triples
   Tobias Risthaus        : Range-separated hybrids, TD-DFT gradient, RPA, STAB
   Michael Roemelt        : Original ROCIS implementation
   Masaaki Saitow         : Open-shell DLPNO-CCSD energy and density
   Barbara Sandhoefer     : DKH picture change effects
   Avijit Sen             : IP-ROCIS
   Kantharuban Sivalingam : CASSCF convergence, NEVPT2, FIC-MRCI
   Bernardo de Souza      : ESD, SOC TD-DFT
   Georgi Stoychev        : AutoAux, RI-MP2 NMR, DLPNO-MP2 response
   Willem Van den Heuvel  : Paramagnetic NMR
   Boris Wezisla          : Elementary symmetry handling
   Frank Wennmohs         : Technical directorship


 We gratefully acknowledge several colleagues who have allowed us to
 interface, adapt or use parts of their codes:
   Stefan Grimme, W. Hujo, H. Kruse, P. Pracht,  : VdW corrections, initial TS optimization,
                  C. Bannwarth, S. Ehlert          DFT functionals, gCP, sTDA/sTD-DF
   Ed Valeev, F. Pavosevic, A. Kumar             : LibInt (2-el integral package), F12 methods
   Garnet Chan, S. Sharma, J. Yang, R. Olivares  : DMRG
   Ulf Ekstrom                                   : XCFun DFT Library
   Mihaly Kallay                                 : mrcc  (arbitrary order and MRCC methods)
   Jiri Pittner, Ondrej Demel                    : Mk-CCSD
   Frank Weinhold                                : gennbo (NPA and NBO analysis)
   Christopher J. Cramer and Donald G. Truhlar   : smd solvation model
   Lars Goerigk                                  : TD-DFT with DH, B97 family of functionals
   V. Asgeirsson, H. Jonsson                     : NEB implementation
   FAccTs GmbH                                   : IRC, NEB, NEB-TS, DLPNO-Multilevel, CI-OPT
                                                   MM, QMMM, 2- and 3-layer-ONIOM, Crystal-QMMM,
                                                   LR-CPCM, SF, NACMEs, symmetry and pop. for TD-DFT,
                                                   nearIR, NL-DFT gradient (VV10), updates on ESD,
                                                   ML-optimized integration grids
   S Lehtola, MJT Oliveira, MAL Marques          : LibXC Library
   Liviu Ungur et al                             : ANISO software


 Your calculation uses the libint2 library for the computation of 2-el integrals
 For citations please refer to: http://libint.valeyev.net

 Your ORCA version has been built with support for libXC version: 5.1.0
 For citations please refer to: https://tddft.org/programs/libxc/

 This ORCA versions uses:
   CBLAS   interface :  Fast vector & matrix operations
   LAPACKE interface :  Fast linear algebra routines
   SCALAPACK package :  Parallel linear algebra routines
   Shared memory     :  Shared parallel matrices
   BLAS/LAPACK       :  OpenBLAS 0.3.15  USE64BITINT DYNAMIC_ARCH NO_AFFINITY Zen SINGLE_THREADED
        Core in use  :  Zen
   Copyright (c) 2011-2014, The OpenBLAS Project



Warning: The global flag for chemical shieldings has been found
         but shieldings for certain elements have also been explicitly requested in the EPRNMR block
         ==>> only the requested shieldings will be calculated

================================================================================

----- Orbital basis set information -----
The basis set includes element-specific modifications.

Your calculation utilizes the basis: def2-SVP
   F. Weigend and R. Ahlrichs, Phys. Chem. Chem. Phys. 7, 3297 (2005).

Your calculation utilizes the basis: SARC-ZORA-TZVP 
   Rb-Xe:  J. D. Rolfes, F. Neese and D. A. Pantazis, J. Comput. Chem. 41, 1842 (2020).
   La-Lu:  D. A. Pantazis and F. Neese, J. Chem. Theory Comput. 5, 2229 (2009).
   Hf-Hg:  D. A. Pantazis, X. Y. Chen, C. R. Landis and F. Neese, J. Chem. Theory Comput. 4, 908 (2008).
   Tl-Rn:  D. A. Pantazis and F. Neese, Theor. Chem. Acc. 131, 1292 (2012).
   Ac-Lr:  D. A. Pantazis and F. Neese, J. Chem. Theory Comput. 7, 677 (2011).

Your calculation utilizes the basis: def2-TZVP
   F. Weigend and R. Ahlrichs, Phys. Chem. Chem. Phys. 7, 3297 (2005).

----- AuxJ basis set information -----
Your calculation utilizes the auxiliary basis: SARC/J 
   decontracted def2/J up to Kr:
   F. Weigend, Phys. Chem. Chem. Phys. 8, 1057 (2006)
   and SARC auxiliary basis sets beyond Kr:
   D. A. Pantazis and F. Neese, J. Chem. Theory Comput. 5, 2229 (2009).
   D. A. Pantazis, X. Y. Chen, C. R. Landis and F. Neese, J. Chem. Theory Comput. 4, 908 (2008).
   D. A. Pantazis and F. Neese, Theor. Chem. Acc. 131, 1292 (2012).
   D. A. Pantazis and F. Neese, J. Chem. Theory Comput. 7, 677 (2011).

================================================================================
                                        WARNINGS
                       Please study these warnings very carefully!
================================================================================

GIAOs and ZORA requested, numerical integration invoked ! 

INFO   : the flag for use of the SHARK integral package has been found!

================================================================================
                                       INPUT FILE
================================================================================
NAME = beecher_se_tzvp.inp
|  1> ! PBE0 ZORA SARC/J NMR
|  2> 
|  3> %basis
|  4>     NewGTO H   "def2-SVP" end
|  5>     NewGTO C   "def2-SVP" end
|  6>     NewGTO N   "def2-SVP" end
|  7>     NewGTO O   "def2-SVP" end
|  8>     NewGTO Cd  "SARC-ZORA-TZVP"  end
|  9>     NewGTO Se  "def2-TZVP"    end
| 10> end
| 11> 
| 12> # run in parallel
| 13> %PAL NPROCS 16 END
| 14> 
| 15> 
| 16> %maxcore 20000
| 17> 
| 18> * xyz 0 1 #charge & multiplicity (2*s+1)
| 19> Cd        -0.15200        2.33800        7.27000
| 20> Cd         2.07300       -0.98700        7.22000
| 21> Cd        -1.90600       -1.33100        7.17000
| 22> Cd         2.15600        1.30800        3.67200
| 23> Cd         0.06000        4.95800        3.53800
| 24> Cd         4.22000       -2.51300        3.45500
| 25> Cd         0.04800       -2.45300        3.56300
| 26> Cd        -2.15600        1.24600        3.68500
| 27> Cd        -4.30300       -2.38800        3.38500
| 28> Cd         4.37100       -0.24200        0.31800
| 29> Cd         2.02400        3.73300        0.08100
| 30> Cd        -0.01500        0.09400        0.21600
| 31> Cd        -2.02100        4.07600        0.39500
| 32> Cd         2.15800       -3.53300       -0.10700
| 33> Cd        -4.11500       -0.00400        0.01400
| 34> Cd        -2.38400       -3.73900        0.30100
| 35> Se        -0.03200       -0.00500        8.44000
| 36> Se         2.18800       -1.20600        4.56600
| 37> Se        -0.01900        2.53800        4.62100
| 38> Se        -2.16100       -1.28800        4.52200
| 39> Se         2.25700        1.25900        1.02900
| 40> Se         0.20400        5.38600        0.95700
| 41> Se         4.48600       -2.81400        0.87800
| 42> Se        -2.16400        1.46700        1.04700
| 43> Se        -0.08200       -2.48300        0.91000
| 44> Se        -4.63400       -2.44500        0.78100
| 45> H         -2.58300        5.95100        3.47300
| 46> H         -2.28800        5.50300        5.05000
| 47> H         -3.93800        5.75800       12.00600
| 48> H         -2.51000        4.38300       10.47900
| 49> H         -5.74600        7.18800       11.05900
| 50> H         -6.12400        7.23900        8.59500
| 51> H         -4.68900        5.85200        7.08900
| 52> H          2.38700        2.90200        8.37500
| 53> H          2.03700        4.14600        7.33800
| 54> H          4.02400       10.51000        4.58900
| 55> H          2.46900        8.60200        4.13800
| 56> H          5.84200       10.25500        6.27500
| 57> H          6.10400        8.09900        7.49800
| 58> H          4.54900        6.20000        7.01800
| 59> H         -1.31500        7.96200        3.69800
| 60> H         -0.86400        7.48700        5.33100
| 61> H         -3.73100        8.13300        4.41300
| 62> H         -3.27500        7.63900        6.04800
| 63> H         -2.24900       10.16300        4.62200
| 64> H         -1.78800        9.65900        6.24700
| 65> H         -4.66000       10.38400        5.37000
| 66> H         -3.58500       11.40500        6.35000
| 67> H         -4.19400        9.86900        7.00400
| 68> H          0.53100        5.11400        8.98300
| 69> H          0.94000        3.79900       10.08000
| 70> H          2.93500        5.86900        8.98000
| 71> H          3.35100        4.55300       10.08800
| 72> H          1.34700        6.80400       10.70400
| 73> H          1.78900        5.50500       11.81200
| 74> H          3.73600        7.63200       10.70300
| 75> H          4.18900        6.32300       11.81600
| 76> H          3.07000        7.59600       12.35000
| 77> H         -3.89400       -5.16600        3.35400
| 78> H         -3.64500       -4.67900        4.92700
| 79> H         -2.79900       -6.34700       11.89200
| 80> H         -2.32300       -4.42500       10.36200
| 81> H         -3.27100       -8.60100       10.94000
| 82> H         -3.26100       -8.93100        8.47000
| 83> H         -2.78200       -6.99700        6.96000
| 84> H         -3.72500        0.48200        8.32000
| 85> H         -4.61400       -0.44100        7.27400
| 86> H        -11.11500       -1.64500        4.41100
| 87> H         -8.69400       -2.03000        3.91100
| 88> H        -11.77000       -0.07400        6.23200
| 89> H        -10.00900        1.10700        7.54300
| 90> H         -7.59600        0.71800        7.01500
| 91> H         -6.26700       -5.06800        3.58800
| 92> H         -6.07700       -4.40000        5.20600
| 93> H         -5.21900       -7.23300        4.35800
| 94> H         -5.00400       -6.54700        5.97200
| 95> H         -7.71600       -6.94700        4.57700
| 96> H         -7.49400       -6.25200        6.18200
| 97> H         -6.70400       -9.12800        5.37900
| 98> H         -8.12000       -8.67500        6.35300
| 99> H         -6.48100       -8.42300        6.99400
|100> H         -4.67200       -2.25400        8.88500
|101> H         -3.70600       -1.27200        9.98300
|102> H         -6.52600       -0.55700        8.97600
|103> H         -5.55900        0.45000       10.06100
|104> H         -6.48300       -2.41400       10.68900
|105> H         -5.55000       -1.38400       11.77400
|106> H         -8.40100       -0.77200       10.75300
|107> H         -7.46500        0.28100       11.83600
|108> H         -7.98100       -1.32800       12.38800
|109> H          6.41700       -0.74200        3.42400
|110> H          5.87100       -0.77200        4.99700
|111> H          6.81300        0.63500       12.02600
|112> H          4.92700        0.13200       10.46200
|113> H          9.01500        1.36600       11.11800
|114> H          9.32600        1.59800        8.65600
|115> H          7.42700        1.09100        7.11100
|116> H          1.36800       -3.46000        8.35100
|117> H          2.60400       -3.78300        7.29900
|118> H          7.06000       -8.71800        4.57500
|119> H          6.17300       -6.43000        4.08100
|120> H          5.95600      -10.12700        6.30900
|121> H          3.97400       -9.25200        7.54100
|122> H          3.09400       -6.97000        7.01700
|123> H          7.50500       -2.85800        3.65800
|124> H          6.84100       -3.01000        5.28100
|125> H          8.89100       -0.88700        4.39900
|126> H          8.19000       -1.00800        6.01900
|127> H          9.85000       -3.20600        4.64900
|128> H          9.13200       -3.33100        6.25300
|129> H         11.27500       -1.26200        5.43600
|130> H         11.55400       -2.71300        6.42400
|131> H         10.54500       -1.39100        7.05100
|132> H          4.22400       -2.97100        8.90600
|133> H          2.90500       -2.60800       10.01600
|134> H          3.62600       -5.41600        8.98000
|135> H          2.29600       -5.06000       10.08900
|136> H          5.26400       -4.50600       10.67200
|137> H          3.93300       -4.18300       11.78100
|138> H          4.72700       -6.97700       10.73000
|139> H          3.38000       -6.65600       11.84300
|140> H          5.05300       -6.35200       12.36100
|141> H         -1.31800        4.38500       -2.29400
|142> H         -2.52300        3.25300       -2.25700
|143> H         -6.65200       -1.12900       -6.31800
|144> H         -5.77800       -0.92700       -3.98200
|145> H         -5.64600        0.24300       -8.13900
|146> H         -3.77600        1.80800       -7.62500
|147> H         -2.91500        1.99000       -5.28400
|148> H         -6.35600        1.19200        1.29800
|149> H         -5.74300        2.33500        0.27700
|150> H         -6.26500        9.30200        2.50800
|151> H         -4.45600        7.63000        2.08000
|152> H         -8.62100        8.75900        1.90200
|153> H         -9.15900        6.55700        0.86600
|154> H         -7.32900        4.90800        0.43100
|155> H         -2.90800        6.19400       -2.07900
|156> H         -4.19300        4.97900       -2.01200
|157> H         -2.31300        5.44500       -4.41000
|158> H         -3.57500        4.20800       -4.33100
|159> H         -4.06100        7.24000       -4.14900
|160> H         -5.31600        6.00500       -4.05400
|161> H         -3.48800        6.48100       -6.49800
|162> H         -5.19600        6.95600       -6.37300
|163> H         -4.75000        5.23600       -6.39700
|164> H         -6.76200        1.22000       -1.62100
|165> H         -7.36900       -0.02400       -0.52900
|166> H         -8.17000        2.94500       -0.44600
|167> H         -8.75900        1.70900        0.67500
|168> H         -9.18000        1.67700       -2.37100
|169> H         -9.76200        0.44200       -1.25600
|170> H        -10.61900        3.41000       -1.21400
|171> H        -11.20400        2.16700       -0.08900
|172> H        -11.59900        2.05700       -1.81800
|173> H          4.02100       -1.00000       -2.35100
|174> H          3.73000        0.63200       -2.30200
|175> H          2.74100        6.65900       -6.16800
|176> H          2.29100        5.79500       -3.86300
|177> H          3.24700        5.06100       -8.01300
|178> H          3.29800        2.61100       -7.55300
|179> H          2.84300        1.77200       -5.24100
|180> H          4.25500        4.96400        1.32900
|181> H          4.87100        3.87500        0.25100
|182> H         11.06600        0.62300        2.32900
|183> H          8.69000       -0.01400        1.87900
|184> H         11.84600        2.93400        1.82400
|185> H         10.26100        4.59300        0.85000
|186> H          7.89600        3.92400        0.38100
|187> H          6.41500       -0.63700       -2.25000
|188> H          6.09700        1.10000       -2.16300
|189> H          5.39700       -0.71900       -4.55000
|190> H          5.04000        1.01100       -4.45200
|191> H          7.86000       -0.21200       -4.33800
|192> H          7.49400        1.50900       -4.23200
|193> H          6.86600       -0.28200       -6.66900
|194> H          8.18700        0.90100       -6.56500
|195> H          6.49800        1.45200       -6.55600
|196> H          4.42800        5.37900       -1.58300
|197> H          3.67600        6.50900       -0.45800
|198> H          6.63900        5.68500       -0.41200
|199> H          5.88000        6.79900        0.73500
|200> H          6.06200        7.23500       -2.30300
|201> H          5.28500        8.34000       -1.16900
|202> H          8.28100        7.58500       -1.13000
|203> H          7.49600        8.69800        0.00900
|204> H          7.60700        9.12300       -1.71200
|205> H         -2.49100       -3.35100       -2.49200
|206> H         -1.14400       -4.26300       -2.18300
|207> H          4.98000       -3.82900       -6.52300
|208> H          4.25100       -3.35100       -4.17800
|209> H          3.41700       -4.95600       -8.10100
|210> H          1.14000       -5.61500       -7.33300
|211> H          0.43800       -5.14200       -4.97700
|212> H          2.19100       -6.05100        1.16000
|213> H          0.87300       -6.05200        0.16500
|214> H         -5.00500       -9.97000        2.42000
|215> H         -4.42400       -7.57400        2.00500
|216> H         -3.36600      -11.75800        1.85300
|217> H         -1.16000      -11.15200        0.86500
|218> H         -0.60500       -8.74800        0.44900
|219> H         -3.93200       -5.28800       -2.18300
|220> H         -2.46000       -6.24100       -1.92900
|221> H         -3.16700       -4.73100       -4.51700
|222> H         -1.69300       -5.67700       -4.25200
|223> H         -4.55500       -6.80500       -4.15100
|224> H         -3.08300       -7.74200       -3.89600
|225> H         -3.81700       -6.27800       -6.51600
|226> H         -3.91200       -8.03100       -6.24500
|227> H         -2.33300       -7.21800       -6.25800
|228> H          2.23700       -6.49400       -1.74900
|229> H          3.68800       -6.37200       -0.74000
|230> H          1.49800       -8.51200       -0.45600
|231> H          2.92000       -8.37800        0.58900
|232> H          2.99400       -8.86200       -2.44600
|233> H          4.41400       -8.71500       -1.41100
|234> H          2.25400      -10.90800       -1.15000
|235> H          3.68300      -10.76000       -0.10700
|236> H          3.87900      -11.13000       -1.83300
|237> H          4.16400        1.75000        5.51400
|238> H          3.41100        3.23000        5.23400
|239> H          4.77600        3.58600        3.28400
|240> H          5.57500        2.04500        3.60700
|241> H          5.52400        4.46000        5.51200
|242> H          6.31800        2.91600        5.85500
|243> H          7.05900        4.79700        3.53400
|244> H          7.85800        3.27000        3.89600
|245> H          7.77400        5.72100        5.77400
|246> H          9.17900        5.18200        4.82600
|247> H          8.56500        4.17900        6.15900
|248> H         -3.57900        2.70900        5.55200
|249> H         -4.45600        1.30300        5.24100
|250> H         -5.44600        2.31300        3.29700
|251> H         -4.54600        3.79100        3.65200
|252> H         -6.60100        2.47000        5.52200
|253> H         -5.70400        3.95100        5.88300
|254> H         -7.67300        3.61300        3.54100
|255> H         -6.79300        5.09100        3.91900
|256> H         -8.85800        3.72700        5.76700
|257> H         -9.12200        5.21300        4.82600
|258> H         -7.96000        5.20500        6.17200
|259> H         -0.56600       -4.40600        5.41600
|260> H          1.09400       -4.47600        5.15800
|261> H          0.76200       -5.87500        3.22700
|262> H         -0.97700       -5.80900        3.52900
|263> H          1.12700       -6.91400        5.48000
|264> H         -0.61100       -6.83800        5.80000
|265> H          0.68500       -8.45500        3.52500
|266> H         -1.04000       -8.39200        3.87000
|267> H          1.12000       -9.48800        5.78600
|268> H         -0.03800      -10.46400        4.85200
|269> H         -0.61400       -9.40600        6.16000
|270> H         -1.02900        0.39100       -4.64000
|271> H          0.72400        0.61600       -4.66400
|272> H          0.97100       -1.15200       -2.88200
|273> H         -0.78300       -1.35600       -2.85200
|274> H          0.67900        1.14100       -2.25400
|275> H         -0.99200        0.96100       -2.24100
|276> H         -0.70700       -2.02000       -5.35400
|277> H          1.03200       -1.75800       -5.41500
|278> H         -1.05100       -0.27500       -7.14600
|279> H          0.05400       -1.55400       -7.70400
|280> H          0.69900        0.02200       -7.19500
|281> C         -1.68600        7.44900        4.59900
|282> C          1.34800        4.43800        9.28100
|283> C         -4.10500        5.78400       10.92700
|284> C         -3.30500        5.01500       10.08100
|285> C         -5.11900        6.58600       10.39600
|286> C         -3.51100        5.03800        8.69300
|287> C         -5.33100        6.61500        9.01400
|288> C         -4.53200        5.84400        8.16900
|289> C         -2.65000        4.20500        7.77100
|290> C          4.14100        9.56700        5.12900
|291> C          3.27100        8.50800        4.87200
|292> C          5.16100        9.42400        6.07400
|293> C          3.41400        7.28900        5.55300
|294> C          5.30900        8.21500        6.75900
|295> C          4.44200        7.15300        6.49700
|296> C          2.48200        6.13200        5.26200
|297> C         -2.91100        8.17300        5.15300
|298> C         -2.61600        9.63100        5.51700
|299> C         -3.82700       10.36300        6.09100
|300> C          2.53800        5.24400        9.79900
|301> C          2.17700        6.13400       10.99100
|302> C          3.35500        6.96700       11.49400
|303> C         -5.63600       -5.11200        4.49000
|304> C         -4.48400       -1.21700        9.20500
|305> C         -2.79700       -6.49500       10.81000
|306> C         -2.53100       -5.41900        9.96200
|307> C         -3.06100       -7.76000       10.27600
|308> C         -2.52600       -5.59500        8.57000
|309> C         -3.05600       -7.94400        8.89100
|310> C         -2.79000       -6.86800        8.04400
|311> C         -2.24600       -4.43200        7.64600
|312> C        -10.34700       -1.12600        4.98800
|313> C         -8.99800       -1.34500        4.70300
|314> C        -10.71400       -0.24500        6.00900
|315> C         -8.00100       -0.68100        5.43300
|316> C         -9.72600        0.41800        6.74400
|317> C         -8.37800        0.20200        6.45500
|318> C         -6.53800       -0.90300        5.11600
|319> C         -5.65500       -6.52100        5.08100
|320> C         -7.06400       -6.97600        5.46800
|321> C         -7.09600       -8.37600        6.08200
|322> C         -5.76000       -0.59700        9.77100
|323> C         -6.31200       -1.36200       10.97600
|324> C         -7.61000       -0.76400       11.51900
|325> C          7.23900       -2.28100        4.55800
|326> C          3.22800       -3.31000        9.23000
|327> C          6.95300        0.73600       10.94800
|328> C          5.89700        0.45300       10.08100
|329> C          8.18900        1.14600       10.43900
|330> C          6.06500        0.57700        8.69300
|331> C          8.36300        1.27500        9.05800
|332> C          7.30700        0.99300        8.19100
|333> C          4.92800        0.26300        7.74600
|334> C          6.19200       -8.33700        5.11800
|335> C          5.70300       -7.06100        4.83700
|336> C          5.57300       -9.12800        6.09000
|337> C          4.58300       -6.56300        5.52100
|338> C          4.46100       -8.63700        6.78000
|339> C          3.96800       -7.36300        6.49400
|340> C          4.03800       -5.18700        5.20500
|341> C          8.48000       -1.60200        5.13500
|342> C          9.56100       -2.61100        5.53400
|343> C         10.80100       -1.96100        6.14400
|344> C          3.30600       -4.73100        9.78500
|345> C          4.26200       -4.85900       10.97300
|346> C          4.36200       -6.28700       11.50700
|347> C         -3.21000        5.20200       -2.45400
|348> C         -7.14200        1.05200       -0.60200
|349> C         -5.83200       -0.44200       -6.09600
|350> C         -5.34900       -0.33400       -4.79200
|351> C         -5.26900        0.32800       -7.11800
|352> C         -4.29600        0.54400       -4.49300
|353> C         -4.21900        1.20600       -6.82900
|354> C         -3.73600        1.31200       -5.52400
|355> C         -3.77500        0.66300       -3.07800
|356> C         -6.50600        8.33500        2.06100
|357> C         -5.49300        7.40400        1.82800
|358> C         -7.82700        8.03200        1.71900
|359> C         -5.78700        6.16200        1.24500
|360> C         -8.12800        6.79700        1.13600
|361> C         -7.11300        5.87200        0.89500
|362> C         -4.69400        5.16200        0.96600
|363> C         -3.30600        5.21900       -3.97900
|364> C         -4.33100        6.22900       -4.50000
|365> C         -4.44900        6.22800       -6.02400
|366> C         -8.41000        1.87000       -0.36200
|367> C         -9.53500        1.51900       -1.33800
|368> C        -10.80800        2.33100       -1.10400
|369> C          5.73200        0.15600       -2.59700
|370> C          4.48500        5.76700       -0.55500
|371> C          2.76600        5.58500       -5.97000
|372> C          2.51500        5.11000       -4.68200
|373> C          3.05000        4.68900       -7.00500
|374> C          2.54500        3.73300       -4.41400
|375> C          3.07900        3.31500       -6.74700
|376> C          2.82700        2.84100       -5.45900
|377> C          2.28300        3.21500       -3.01900
|378> C         10.37000        1.35600        1.91400
|379> C          9.04500        0.99500        1.66600
|380> C         10.81000        2.65100        1.62600
|381> C          8.14600        1.92200        1.11800
|382> C          9.92000        3.58100        1.07800
|383> C          8.60000        3.21500        0.81900
|384> C          6.71700        1.53400        0.82300
|385> C          5.75400        0.23600       -4.12200
|386> C          7.14500        0.55900       -4.67400
|387> C          7.17800        0.66300       -6.19800
|388> C          5.83600        6.43600       -0.30800
|389> C          6.10200        7.60300       -1.26300
|390> C          7.44300        8.29000       -1.01200
|391> C         -2.87300       -5.38000       -2.47300
|392> C          2.63500       -6.70000       -0.74400
|393> C          3.97800       -4.11000       -6.19100
|394> C          3.57600       -3.83900       -4.88300
|395> C          3.10200       -4.74500       -7.07700
|396> C          2.29500       -4.20600       -4.44300
|397> C          1.82500       -5.11600       -6.64500
|398> C          1.42800       -4.85300       -5.33400
|399> C          1.85600       -3.93600       -3.02400
|400> C         -4.03400       -9.70700        1.99600
|401> C         -3.71300       -8.36700        1.77000
|402> C         -3.11500      -10.71000        1.67500
|403> C         -2.47200       -8.01700        1.21800
|404> C         -1.87800      -10.37000        1.12000
|405> C         -1.56200       -9.03200        0.88900
|406> C         -2.12200       -6.57600        0.95200
|407> C         -2.76100       -5.60800       -3.98000
|408> C         -3.49100       -6.87200       -4.44000
|409> C         -3.38400       -7.11400       -5.94500
|410> C          2.55600       -8.19500       -0.43800
|411> C          3.36100       -9.04700       -1.42100
|412> C          3.29200      -10.54200       -1.11300
|413> C          5.08600        2.90400        4.09200
|414> C          6.05200        3.61300        5.04100
|415> C          7.32700        4.11700        4.36300
|416> C          8.26400        4.84000        5.33100
|417> C         -5.03300        2.92000        4.11900
|418> C         -6.15200        3.36700        5.06100
|419> C         -7.24100        4.19300        4.37700
|420> C         -8.35700        4.60800        5.33600
|421> C          0.00600       -5.79500        4.02400
|422> C          0.13600       -6.96700        4.99800
|423> C         -0.04600       -8.33700        4.34400
|424> C          0.11400       -9.48800        5.33700
|425> C         -0.06900       -0.13400       -4.50200
|426> C          0.01900       -0.62800       -3.05700
|427> C          0.06200       -1.24900       -5.54000
|428> C         -0.06700       -0.73800       -6.97500
|429> N         -1.90700        6.02900        4.24600
|430> N          1.65800        3.57700        8.11800
|431> N         -4.29300       -4.61000        4.12400
|432> N         -3.92200       -0.48700        8.04600
|433> N          6.13500       -1.36600        4.19300
|434> N          2.31100       -3.16200        8.07700
|435> N         -2.25700        4.19900       -1.92400
|436> N         -6.03400        1.34300        0.33600
|437> N          4.39700       -0.10500       -2.01200
|438> N          4.18100        4.64200        0.35800
|439> N         -2.15700       -4.17800       -1.98500
|440> N          1.88600       -5.84400        0.20300
|441> N          3.86700        2.41900        4.78100
|442> N         -3.99300        2.11900        4.80700
|443> N          0.17100       -4.48200        4.69100
|444> N         -0.09400        0.47500       -2.07100
|445> O         -1.74200        3.50000        8.34900
|446> O         -2.86600        4.24000        6.52500
|447> O          1.51400        6.39700        4.46200
|448> O          2.71100        5.01000        5.80300
|449> O         -1.99100       -3.31100        8.22700
|450> O         -2.26800       -4.61700        6.39600
|451> O         -6.29900       -1.79000        4.21800
|452> O         -5.66700       -0.21800        5.72800
|453> O          3.82200       -0.08500        8.30500
|454> O          5.11700        0.36400        6.50000
|455> O          4.72300       -4.50600        4.35900
|456> O          2.97000       -4.80800        5.76900
|457> O         -4.34700       -0.10000       -2.21700
|458> O         -2.83300        1.47200       -2.83400
|459> O         -3.52200        5.44000        1.43900
|460> O         -4.94500        4.13600        0.27500
|461> O          1.98900        4.10800       -2.14100
|462> O          2.35400        1.97100       -2.79700
|463> O          6.32500        0.39500        1.29600
|464> O          5.99400        2.29800        0.12800
|465> O          2.66100       -3.22600       -2.30100
|466> O          0.77200       -4.42400       -2.60500
|467> O         -2.94500       -5.68100        1.39600
|468> O         -1.08200       -6.29600        0.29400
|469> *
|470> 
|471> %eprnmr 
|472>     nuclei = all Cd {shift}
|473>     nuclei = all Se {shift}
|474> end
|475> 
|476>                          ****END OF INPUT****
================================================================================

                       ****************************
                       * Single Point Calculation *
                       ****************************

---------------------------------
CARTESIAN COORDINATES (ANGSTROEM)
---------------------------------
  Cd    -0.152000    2.338000    7.270000
  Cd     2.073000   -0.987000    7.220000
  Cd    -1.906000   -1.331000    7.170000
  Cd     2.156000    1.308000    3.672000
  Cd     0.060000    4.958000    3.538000
  Cd     4.220000   -2.513000    3.455000
  Cd     0.048000   -2.453000    3.563000
  Cd    -2.156000    1.246000    3.685000
  Cd    -4.303000   -2.388000    3.385000
  Cd     4.371000   -0.242000    0.318000
  Cd     2.024000    3.733000    0.081000
  Cd    -0.015000    0.094000    0.216000
  Cd    -2.021000    4.076000    0.395000
  Cd     2.158000   -3.533000   -0.107000
  Cd    -4.115000   -0.004000    0.014000
  Cd    -2.384000   -3.739000    0.301000
  Se    -0.032000   -0.005000    8.440000
  Se     2.188000   -1.206000    4.566000
  Se    -0.019000    2.538000    4.621000
  Se    -2.161000   -1.288000    4.522000
  Se     2.257000    1.259000    1.029000
  Se     0.204000    5.386000    0.957000
  Se     4.486000   -2.814000    0.878000
  Se    -2.164000    1.467000    1.047000
  Se    -0.082000   -2.483000    0.910000
  Se    -4.634000   -2.445000    0.781000
  H     -2.583000    5.951000    3.473000
  H     -2.288000    5.503000    5.050000
  H     -3.938000    5.758000   12.006000
  H     -2.510000    4.383000   10.479000
  H     -5.746000    7.188000   11.059000
  H     -6.124000    7.239000    8.595000
  H     -4.689000    5.852000    7.089000
  H      2.387000    2.902000    8.375000
  H      2.037000    4.146000    7.338000
  H      4.024000   10.510000    4.589000
  H      2.469000    8.602000    4.138000
  H      5.842000   10.255000    6.275000
  H      6.104000    8.099000    7.498000
  H      4.549000    6.200000    7.018000
  H     -1.315000    7.962000    3.698000
  H     -0.864000    7.487000    5.331000
  H     -3.731000    8.133000    4.413000
  H     -3.275000    7.639000    6.048000
  H     -2.249000   10.163000    4.622000
  H     -1.788000    9.659000    6.247000
  H     -4.660000   10.384000    5.370000
  H     -3.585000   11.405000    6.350000
  H     -4.194000    9.869000    7.004000
  H      0.531000    5.114000    8.983000
  H      0.940000    3.799000   10.080000
  H      2.935000    5.869000    8.980000
  H      3.351000    4.553000   10.088000
  H      1.347000    6.804000   10.704000
  H      1.789000    5.505000   11.812000
  H      3.736000    7.632000   10.703000
  H      4.189000    6.323000   11.816000
  H      3.070000    7.596000   12.350000
  H     -3.894000   -5.166000    3.354000
  H     -3.645000   -4.679000    4.927000
  H     -2.799000   -6.347000   11.892000
  H     -2.323000   -4.425000   10.362000
  H     -3.271000   -8.601000   10.940000
  H     -3.261000   -8.931000    8.470000
  H     -2.782000   -6.997000    6.960000
  H     -3.725000    0.482000    8.320000
  H     -4.614000   -0.441000    7.274000
  H    -11.115000   -1.645000    4.411000
  H     -8.694000   -2.030000    3.911000
  H    -11.770000   -0.074000    6.232000
  H    -10.009000    1.107000    7.543000
  H     -7.596000    0.718000    7.015000
  H     -6.267000   -5.068000    3.588000
  H     -6.077000   -4.400000    5.206000
  H     -5.219000   -7.233000    4.358000
  H     -5.004000   -6.547000    5.972000
  H     -7.716000   -6.947000    4.577000
  H     -7.494000   -6.252000    6.182000
  H     -6.704000   -9.128000    5.379000
  H     -8.120000   -8.675000    6.353000
  H     -6.481000   -8.423000    6.994000
  H     -4.672000   -2.254000    8.885000
  H     -3.706000   -1.272000    9.983000
  H     -6.526000   -0.557000    8.976000
  H     -5.559000    0.450000   10.061000
  H     -6.483000   -2.414000   10.689000
  H     -5.550000   -1.384000   11.774000
  H     -8.401000   -0.772000   10.753000
  H     -7.465000    0.281000   11.836000
  H     -7.981000   -1.328000   12.388000
  H      6.417000   -0.742000    3.424000
  H      5.871000   -0.772000    4.997000
  H      6.813000    0.635000   12.026000
  H      4.927000    0.132000   10.462000
  H      9.015000    1.366000   11.118000
  H      9.326000    1.598000    8.656000
  H      7.427000    1.091000    7.111000
  H      1.368000   -3.460000    8.351000
  H      2.604000   -3.783000    7.299000
  H      7.060000   -8.718000    4.575000
  H      6.173000   -6.430000    4.081000
  H      5.956000  -10.127000    6.309000
  H      3.974000   -9.252000    7.541000
  H      3.094000   -6.970000    7.017000
  H      7.505000   -2.858000    3.658000
  H      6.841000   -3.010000    5.281000
  H      8.891000   -0.887000    4.399000
  H      8.190000   -1.008000    6.019000
  H      9.850000   -3.206000    4.649000
  H      9.132000   -3.331000    6.253000
  H     11.275000   -1.262000    5.436000
  H     11.554000   -2.713000    6.424000
  H     10.545000   -1.391000    7.051000
  H      4.224000   -2.971000    8.906000
  H      2.905000   -2.608000   10.016000
  H      3.626000   -5.416000    8.980000
  H      2.296000   -5.060000   10.089000
  H      5.264000   -4.506000   10.672000
  H      3.933000   -4.183000   11.781000
  H      4.727000   -6.977000   10.730000
  H      3.380000   -6.656000   11.843000
  H      5.053000   -6.352000   12.361000
  H     -1.318000    4.385000   -2.294000
  H     -2.523000    3.253000   -2.257000
  H     -6.652000   -1.129000   -6.318000
  H     -5.778000   -0.927000   -3.982000
  H     -5.646000    0.243000   -8.139000
  H     -3.776000    1.808000   -7.625000
  H     -2.915000    1.990000   -5.284000
  H     -6.356000    1.192000    1.298000
  H     -5.743000    2.335000    0.277000
  H     -6.265000    9.302000    2.508000
  H     -4.456000    7.630000    2.080000
  H     -8.621000    8.759000    1.902000
  H     -9.159000    6.557000    0.866000
  H     -7.329000    4.908000    0.431000
  H     -2.908000    6.194000   -2.079000
  H     -4.193000    4.979000   -2.012000
  H     -2.313000    5.445000   -4.410000
  H     -3.575000    4.208000   -4.331000
  H     -4.061000    7.240000   -4.149000
  H     -5.316000    6.005000   -4.054000
  H     -3.488000    6.481000   -6.498000
  H     -5.196000    6.956000   -6.373000
  H     -4.750000    5.236000   -6.397000
  H     -6.762000    1.220000   -1.621000
  H     -7.369000   -0.024000   -0.529000
  H     -8.170000    2.945000   -0.446000
  H     -8.759000    1.709000    0.675000
  H     -9.180000    1.677000   -2.371000
  H     -9.762000    0.442000   -1.256000
  H    -10.619000    3.410000   -1.214000
  H    -11.204000    2.167000   -0.089000
  H    -11.599000    2.057000   -1.818000
  H      4.021000   -1.000000   -2.351000
  H      3.730000    0.632000   -2.302000
  H      2.741000    6.659000   -6.168000
  H      2.291000    5.795000   -3.863000
  H      3.247000    5.061000   -8.013000
  H      3.298000    2.611000   -7.553000
  H      2.843000    1.772000   -5.241000
  H      4.255000    4.964000    1.329000
  H      4.871000    3.875000    0.251000
  H     11.066000    0.623000    2.329000
  H      8.690000   -0.014000    1.879000
  H     11.846000    2.934000    1.824000
  H     10.261000    4.593000    0.850000
  H      7.896000    3.924000    0.381000
  H      6.415000   -0.637000   -2.250000
  H      6.097000    1.100000   -2.163000
  H      5.397000   -0.719000   -4.550000
  H      5.040000    1.011000   -4.452000
  H      7.860000   -0.212000   -4.338000
  H      7.494000    1.509000   -4.232000
  H      6.866000   -0.282000   -6.669000
  H      8.187000    0.901000   -6.565000
  H      6.498000    1.452000   -6.556000
  H      4.428000    5.379000   -1.583000
  H      3.676000    6.509000   -0.458000
  H      6.639000    5.685000   -0.412000
  H      5.880000    6.799000    0.735000
  H      6.062000    7.235000   -2.303000
  H      5.285000    8.340000   -1.169000
  H      8.281000    7.585000   -1.130000
  H      7.496000    8.698000    0.009000
  H      7.607000    9.123000   -1.712000
  H     -2.491000   -3.351000   -2.492000
  H     -1.144000   -4.263000   -2.183000
  H      4.980000   -3.829000   -6.523000
  H      4.251000   -3.351000   -4.178000
  H      3.417000   -4.956000   -8.101000
  H      1.140000   -5.615000   -7.333000
  H      0.438000   -5.142000   -4.977000
  H      2.191000   -6.051000    1.160000
  H      0.873000   -6.052000    0.165000
  H     -5.005000   -9.970000    2.420000
  H     -4.424000   -7.574000    2.005000
  H     -3.366000  -11.758000    1.853000
  H     -1.160000  -11.152000    0.865000
  H     -0.605000   -8.748000    0.449000
  H     -3.932000   -5.288000   -2.183000
  H     -2.460000   -6.241000   -1.929000
  H     -3.167000   -4.731000   -4.517000
  H     -1.693000   -5.677000   -4.252000
  H     -4.555000   -6.805000   -4.151000
  H     -3.083000   -7.742000   -3.896000
  H     -3.817000   -6.278000   -6.516000
  H     -3.912000   -8.031000   -6.245000
  H     -2.333000   -7.218000   -6.258000
  H      2.237000   -6.494000   -1.749000
  H      3.688000   -6.372000   -0.740000
  H      1.498000   -8.512000   -0.456000
  H      2.920000   -8.378000    0.589000
  H      2.994000   -8.862000   -2.446000
  H      4.414000   -8.715000   -1.411000
  H      2.254000  -10.908000   -1.150000
  H      3.683000  -10.760000   -0.107000
  H      3.879000  -11.130000   -1.833000
  H      4.164000    1.750000    5.514000
  H      3.411000    3.230000    5.234000
  H      4.776000    3.586000    3.284000
  H      5.575000    2.045000    3.607000
  H      5.524000    4.460000    5.512000
  H      6.318000    2.916000    5.855000
  H      7.059000    4.797000    3.534000
  H      7.858000    3.270000    3.896000
  H      7.774000    5.721000    5.774000
  H      9.179000    5.182000    4.826000
  H      8.565000    4.179000    6.159000
  H     -3.579000    2.709000    5.552000
  H     -4.456000    1.303000    5.241000
  H     -5.446000    2.313000    3.297000
  H     -4.546000    3.791000    3.652000
  H     -6.601000    2.470000    5.522000
  H     -5.704000    3.951000    5.883000
  H     -7.673000    3.613000    3.541000
  H     -6.793000    5.091000    3.919000
  H     -8.858000    3.727000    5.767000
  H     -9.122000    5.213000    4.826000
  H     -7.960000    5.205000    6.172000
  H     -0.566000   -4.406000    5.416000
  H      1.094000   -4.476000    5.158000
  H      0.762000   -5.875000    3.227000
  H     -0.977000   -5.809000    3.529000
  H      1.127000   -6.914000    5.480000
  H     -0.611000   -6.838000    5.800000
  H      0.685000   -8.455000    3.525000
  H     -1.040000   -8.392000    3.870000
  H      1.120000   -9.488000    5.786000
  H     -0.038000  -10.464000    4.852000
  H     -0.614000   -9.406000    6.160000
  H     -1.029000    0.391000   -4.640000
  H      0.724000    0.616000   -4.664000
  H      0.971000   -1.152000   -2.882000
  H     -0.783000   -1.356000   -2.852000
  H      0.679000    1.141000   -2.254000
  H     -0.992000    0.961000   -2.241000
  H     -0.707000   -2.020000   -5.354000
  H      1.032000   -1.758000   -5.415000
  H     -1.051000   -0.275000   -7.146000
  H      0.054000   -1.554000   -7.704000
  H      0.699000    0.022000   -7.195000
  C     -1.686000    7.449000    4.599000
  C      1.348000    4.438000    9.281000
  C     -4.105000    5.784000   10.927000
  C     -3.305000    5.015000   10.081000
  C     -5.119000    6.586000   10.396000
  C     -3.511000    5.038000    8.693000
  C     -5.331000    6.615000    9.014000
  C     -4.532000    5.844000    8.169000
  C     -2.650000    4.205000    7.771000
  C      4.141000    9.567000    5.129000
  C      3.271000    8.508000    4.872000
  C      5.161000    9.424000    6.074000
  C      3.414000    7.289000    5.553000
  C      5.309000    8.215000    6.759000
  C      4.442000    7.153000    6.497000
  C      2.482000    6.132000    5.262000
  C     -2.911000    8.173000    5.153000
  C     -2.616000    9.631000    5.517000
  C     -3.827000   10.363000    6.091000
  C      2.538000    5.244000    9.799000
  C      2.177000    6.134000   10.991000
  C      3.355000    6.967000   11.494000
  C     -5.636000   -5.112000    4.490000
  C     -4.484000   -1.217000    9.205000
  C     -2.797000   -6.495000   10.810000
  C     -2.531000   -5.419000    9.962000
  C     -3.061000   -7.760000   10.276000
  C     -2.526000   -5.595000    8.570000
  C     -3.056000   -7.944000    8.891000
  C     -2.790000   -6.868000    8.044000
  C     -2.246000   -4.432000    7.646000
  C    -10.347000   -1.126000    4.988000
  C     -8.998000   -1.345000    4.703000
  C    -10.714000   -0.245000    6.009000
  C     -8.001000   -0.681000    5.433000
  C     -9.726000    0.418000    6.744000
  C     -8.378000    0.202000    6.455000
  C     -6.538000   -0.903000    5.116000
  C     -5.655000   -6.521000    5.081000
  C     -7.064000   -6.976000    5.468000
  C     -7.096000   -8.376000    6.082000
  C     -5.760000   -0.597000    9.771000
  C     -6.312000   -1.362000   10.976000
  C     -7.610000   -0.764000   11.519000
  C      7.239000   -2.281000    4.558000
  C      3.228000   -3.310000    9.230000
  C      6.953000    0.736000   10.948000
  C      5.897000    0.453000   10.081000
  C      8.189000    1.146000   10.439000
  C      6.065000    0.577000    8.693000
  C      8.363000    1.275000    9.058000
  C      7.307000    0.993000    8.191000
  C      4.928000    0.263000    7.746000
  C      6.192000   -8.337000    5.118000
  C      5.703000   -7.061000    4.837000
  C      5.573000   -9.128000    6.090000
  C      4.583000   -6.563000    5.521000
  C      4.461000   -8.637000    6.780000
  C      3.968000   -7.363000    6.494000
  C      4.038000   -5.187000    5.205000
  C      8.480000   -1.602000    5.135000
  C      9.561000   -2.611000    5.534000
  C     10.801000   -1.961000    6.144000
  C      3.306000   -4.731000    9.785000
  C      4.262000   -4.859000   10.973000
  C      4.362000   -6.287000   11.507000
  C     -3.210000    5.202000   -2.454000
  C     -7.142000    1.052000   -0.602000
  C     -5.832000   -0.442000   -6.096000
  C     -5.349000   -0.334000   -4.792000
  C     -5.269000    0.328000   -7.118000
  C     -4.296000    0.544000   -4.493000
  C     -4.219000    1.206000   -6.829000
  C     -3.736000    1.312000   -5.524000
  C     -3.775000    0.663000   -3.078000
  C     -6.506000    8.335000    2.061000
  C     -5.493000    7.404000    1.828000
  C     -7.827000    8.032000    1.719000
  C     -5.787000    6.162000    1.245000
  C     -8.128000    6.797000    1.136000
  C     -7.113000    5.872000    0.895000
  C     -4.694000    5.162000    0.966000
  C     -3.306000    5.219000   -3.979000
  C     -4.331000    6.229000   -4.500000
  C     -4.449000    6.228000   -6.024000
  C     -8.410000    1.870000   -0.362000
  C     -9.535000    1.519000   -1.338000
  C    -10.808000    2.331000   -1.104000
  C      5.732000    0.156000   -2.597000
  C      4.485000    5.767000   -0.555000
  C      2.766000    5.585000   -5.970000
  C      2.515000    5.110000   -4.682000
  C      3.050000    4.689000   -7.005000
  C      2.545000    3.733000   -4.414000
  C      3.079000    3.315000   -6.747000
  C      2.827000    2.841000   -5.459000
  C      2.283000    3.215000   -3.019000
  C     10.370000    1.356000    1.914000
  C      9.045000    0.995000    1.666000
  C     10.810000    2.651000    1.626000
  C      8.146000    1.922000    1.118000
  C      9.920000    3.581000    1.078000
  C      8.600000    3.215000    0.819000
  C      6.717000    1.534000    0.823000
  C      5.754000    0.236000   -4.122000
  C      7.145000    0.559000   -4.674000
  C      7.178000    0.663000   -6.198000
  C      5.836000    6.436000   -0.308000
  C      6.102000    7.603000   -1.263000
  C      7.443000    8.290000   -1.012000
  C     -2.873000   -5.380000   -2.473000
  C      2.635000   -6.700000   -0.744000
  C      3.978000   -4.110000   -6.191000
  C      3.576000   -3.839000   -4.883000
  C      3.102000   -4.745000   -7.077000
  C      2.295000   -4.206000   -4.443000
  C      1.825000   -5.116000   -6.645000
  C      1.428000   -4.853000   -5.334000
  C      1.856000   -3.936000   -3.024000
  C     -4.034000   -9.707000    1.996000
  C     -3.713000   -8.367000    1.770000
  C     -3.115000  -10.710000    1.675000
  C     -2.472000   -8.017000    1.218000
  C     -1.878000  -10.370000    1.120000
  C     -1.562000   -9.032000    0.889000
  C     -2.122000   -6.576000    0.952000
  C     -2.761000   -5.608000   -3.980000
  C     -3.491000   -6.872000   -4.440000
  C     -3.384000   -7.114000   -5.945000
  C      2.556000   -8.195000   -0.438000
  C      3.361000   -9.047000   -1.421000
  C      3.292000  -10.542000   -1.113000
  C      5.086000    2.904000    4.092000
  C      6.052000    3.613000    5.041000
  C      7.327000    4.117000    4.363000
  C      8.264000    4.840000    5.331000
  C     -5.033000    2.920000    4.119000
  C     -6.152000    3.367000    5.061000
  C     -7.241000    4.193000    4.377000
  C     -8.357000    4.608000    5.336000
  C      0.006000   -5.795000    4.024000
  C      0.136000   -6.967000    4.998000
  C     -0.046000   -8.337000    4.344000
  C      0.114000   -9.488000    5.337000
  C     -0.069000   -0.134000   -4.502000
  C      0.019000   -0.628000   -3.057000
  C      0.062000   -1.249000   -5.540000
  C     -0.067000   -0.738000   -6.975000
  N     -1.907000    6.029000    4.246000
  N      1.658000    3.577000    8.118000
  N     -4.293000   -4.610000    4.124000
  N     -3.922000   -0.487000    8.046000
  N      6.135000   -1.366000    4.193000
  N      2.311000   -3.162000    8.077000
  N     -2.257000    4.199000   -1.924000
  N     -6.034000    1.343000    0.336000
  N      4.397000   -0.105000   -2.012000
  N      4.181000    4.642000    0.358000
  N     -2.157000   -4.178000   -1.985000
  N      1.886000   -5.844000    0.203000
  N      3.867000    2.419000    4.781000
  N     -3.993000    2.119000    4.807000
  N      0.171000   -4.482000    4.691000
  N     -0.094000    0.475000   -2.071000
  O     -1.742000    3.500000    8.349000
  O     -2.866000    4.240000    6.525000
  O      1.514000    6.397000    4.462000
  O      2.711000    5.010000    5.803000
  O     -1.991000   -3.311000    8.227000
  O     -2.268000   -4.617000    6.396000
  O     -6.299000   -1.790000    4.218000
  O     -5.667000   -0.218000    5.728000
  O      3.822000   -0.085000    8.305000
  O      5.117000    0.364000    6.500000
  O      4.723000   -4.506000    4.359000
  O      2.970000   -4.808000    5.769000
  O     -4.347000   -0.100000   -2.217000
  O     -2.833000    1.472000   -2.834000
  O     -3.522000    5.440000    1.439000
  O     -4.945000    4.136000    0.275000
  O      1.989000    4.108000   -2.141000
  O      2.354000    1.971000   -2.797000
  O      6.325000    0.395000    1.296000
  O      5.994000    2.298000    0.128000
  O      2.661000   -3.226000   -2.301000
  O      0.772000   -4.424000   -2.605000
  O     -2.945000   -5.681000    1.396000
  O     -1.082000   -6.296000    0.294000

----------------------------
CARTESIAN COORDINATES (A.U.)
----------------------------
  NO LB      ZA    FRAG     MASS         X           Y           Z
   0 Cd   48.0000    0   112.410   -0.287238    4.418180   13.738309
   1 Cd   48.0000    0   112.410    3.917402   -1.865160   13.643823
   2 Cd   48.0000    0   112.410   -3.601818   -2.515225   13.549336
   3 Cd   48.0000    0   112.410    4.074250    2.471762    6.939074
   4 Cd   48.0000    0   112.410    0.113384    9.369262    6.685851
   5 Cd   48.0000    0   112.410    7.974644   -4.748882    6.529004
   6 Cd   48.0000    0   112.410    0.090707   -4.635498    6.733094
   7 Cd   48.0000    0   112.410   -4.074250    2.354599    6.963641
   8 Cd   48.0000    0   112.410   -8.131492   -4.512666    6.396723
   9 Cd   48.0000    0   112.410    8.259993   -0.457314    0.600933
  10 Cd   48.0000    0   112.410    3.824806    7.054348    0.153068
  11 Cd   48.0000    0   112.410   -0.028346    0.177634    0.408181
  12 Cd   48.0000    0   112.410   -3.819137    7.702524    0.746442
  13 Cd   48.0000    0   112.410    4.078029   -6.676402   -0.202201
  14 Cd   48.0000    0   112.410   -7.776223   -0.007559    0.026456
  15 Cd   48.0000    0   112.410   -4.505107   -7.065686    0.568808
  16 Se   34.0000    0    78.960   -0.060471   -0.009449   15.949289
  17 Se   34.0000    0    78.960    4.134721   -2.279010    8.628490
  18 Se   34.0000    0    78.960   -0.035905    4.796125    8.732424
  19 Se   34.0000    0    78.960   -4.083698   -2.433967    8.545342
  20 Se   34.0000    0    78.960    4.265112    2.379165    1.944528
  21 Se   34.0000    0    78.960    0.385504   10.178065    1.808468
  22 Se   34.0000    0    78.960    8.477311   -5.317689    1.659180
  23 Se   34.0000    0    78.960   -4.089367    2.772228    1.978543
  24 Se   34.0000    0    78.960   -0.154958   -4.692190    1.719651
  25 Se   34.0000    0    78.960   -8.756991   -4.620380    1.475876
  26 H     1.0000    0     1.008   -4.881163   11.245760    6.563019
  27 H     1.0000    0     1.008   -4.323693   10.399163    9.543117
  28 H     1.0000    0     1.008   -7.441742   10.881043   22.688052
  29 H     1.0000    0     1.008   -4.743213    8.282670   19.802440
  30 H     1.0000    0     1.008  -10.858366   13.583351   20.898481
  31 H     1.0000    0     1.008  -11.572683   13.679727   16.242196
  32 H     1.0000    0     1.008   -8.860926   11.058677   13.396269
  33 H     1.0000    0     1.008    4.510776    5.483985   15.826456
  34 H     1.0000    0     1.008    3.849372    7.834805   13.866810
  35 H     1.0000    0     1.008    7.604258   19.861022    8.671953
  36 H     1.0000    0     1.008    4.665734   16.255424    7.819687
  37 H     1.0000    0     1.008   11.039780   19.379142   11.858031
  38 H     1.0000    0     1.008   11.534888   15.304892   14.169167
  39 H     1.0000    0     1.008    8.596364   11.716302   13.262098
  40 H     1.0000    0     1.008   -2.484990   15.045999    6.988207
  41 H     1.0000    0     1.008   -1.632723   14.148380   10.074130
  42 H     1.0000    0     1.008   -7.050568   15.369143    8.339361
  43 H     1.0000    0     1.008   -6.188853   14.435618   11.429064
  44 H     1.0000    0     1.008   -4.249994   19.205287    8.734314
  45 H     1.0000    0     1.008   -3.378830   18.252865   11.805119
  46 H     1.0000    0     1.008   -8.806124   19.622916   10.147829
  47 H     1.0000    0     1.008   -6.774668   21.552327   11.999761
  48 H     1.0000    0     1.008   -7.925511   18.649707   13.235642
  49 H     1.0000    0     1.008    1.003445    9.664059   16.975410
  50 H     1.0000    0     1.008    1.776343    7.179070   19.048439
  51 H     1.0000    0     1.008    5.546346   11.090803   16.969741
  52 H     1.0000    0     1.008    6.332472    8.603923   19.063557
  53 H     1.0000    0     1.008    2.545461   12.857697   20.227629
  54 H     1.0000    0     1.008    3.380720   10.402942   22.321445
  55 H     1.0000    0     1.008    7.060017   14.422390   20.225739
  56 H     1.0000    0     1.008    7.916063   11.948738   22.329004
  57 H     1.0000    0     1.008    5.801459   14.354360   23.338118
  58 H     1.0000    0     1.008   -7.358594   -9.762325    6.338141
  59 H     1.0000    0     1.008   -6.888052   -8.842029    9.310681
  60 H     1.0000    0     1.008   -5.289343  -11.994092   22.472623
  61 H     1.0000    0     1.008   -4.389834   -8.362038   19.581342
  62 H     1.0000    0     1.008   -6.181294  -16.253534   20.673604
  63 H     1.0000    0     1.008   -6.162397  -16.877144   16.005980
  64 H     1.0000    0     1.008   -5.257218  -13.222414   13.152494
  65 H     1.0000    0     1.008   -7.039230    0.910848   15.722521
  66 H     1.0000    0     1.008   -8.719196   -0.833369   13.745868
  67 H     1.0000    0     1.008  -21.004306   -3.108599    8.335582
  68 H     1.0000    0     1.008  -16.429279   -3.836144    7.390719
  69 H     1.0000    0     1.008  -22.242077   -0.139840   11.776773
  70 H     1.0000    0     1.008  -18.914269    2.091927   14.254204
  71 H     1.0000    0     1.008  -14.354360    1.356823   13.256429
  72 H     1.0000    0     1.008  -11.842914   -9.577132    6.780337
  73 H     1.0000    0     1.008  -11.483866   -8.314795    9.837914
  74 H     1.0000    0     1.008   -9.862481  -13.668389    8.235426
  75 H     1.0000    0     1.008   -9.456190  -12.372037   11.285444
  76 H     1.0000    0     1.008  -14.581127  -13.127927    8.649277
  77 H     1.0000    0     1.008  -14.161608  -11.814568   11.682287
  78 H     1.0000    0     1.008  -12.668724  -17.249420   10.164837
  79 H     1.0000    0     1.008  -15.344576  -16.393374   12.005430
  80 H     1.0000    0     1.008  -12.247315  -15.917163   13.216745
  81 H     1.0000    0     1.008   -8.828800   -4.259443   16.790217
  82 H     1.0000    0     1.008   -7.003325   -2.403732   18.865136
  83 H     1.0000    0     1.008  -12.332353   -1.052577   16.962182
  84 H     1.0000    0     1.008  -10.504988    0.850377   19.012535
  85 H     1.0000    0     1.008  -12.251095   -4.561799   20.199283
  86 H     1.0000    0     1.008  -10.487980   -2.615381   22.249636
  87 H     1.0000    0     1.008  -15.875589   -1.458869   20.320225
  88 H     1.0000    0     1.008  -14.106806    0.531013   22.366799
  89 H     1.0000    0     1.008  -15.081904   -2.509556   23.409927
  90 H     1.0000    0     1.008   12.126373   -1.402177    6.470422
  91 H     1.0000    0     1.008   11.094582   -1.458869    9.442961
  92 H     1.0000    0     1.008   12.874704    1.199976   22.725846
  93 H     1.0000    0     1.008    9.310681    0.249444   19.770315
  94 H     1.0000    0     1.008   17.035881    2.581366   21.009975
  95 H     1.0000    0     1.008   17.623586    3.019782   16.357469
  96 H     1.0000    0     1.008   14.034996    2.061691   13.437843
  97 H     1.0000    0     1.008    2.585145   -6.538452   15.781103
  98 H     1.0000    0     1.008    4.920847   -7.148834   13.793111
  99 H     1.0000    0     1.008   13.341467  -16.474632    8.645497
 100 H     1.0000    0     1.008   11.665279  -12.150939    7.711972
 101 H     1.0000    0     1.008   11.255209  -19.137257   11.922282
 102 H     1.0000    0     1.008    7.509772  -17.483746   14.250425
 103 H     1.0000    0     1.008    5.846813  -13.171391   13.260208
 104 H     1.0000    0     1.008   14.182395   -5.400837    6.912618
 105 H     1.0000    0     1.008   12.927616   -5.688076    9.979644
 106 H     1.0000    0     1.008   16.801555   -1.676187    8.312905
 107 H     1.0000    0     1.008   15.476857   -1.904844   11.374262
 108 H     1.0000    0     1.008   18.613802   -6.058462    8.785337
 109 H     1.0000    0     1.008   17.256979   -6.294678   11.816458
 110 H     1.0000    0     1.008   21.306662   -2.384834   10.272551
 111 H     1.0000    0     1.008   21.833896   -5.126827   12.139601
 112 H     1.0000    0     1.008   19.927162   -2.628609   13.324459
 113 H     1.0000    0     1.008    7.982203   -5.614376   16.829901
 114 H     1.0000    0     1.008    5.489654   -4.928406   18.927497
 115 H     1.0000    0     1.008    6.852147  -10.234757   16.969741
 116 H     1.0000    0     1.008    4.338811   -9.562014   19.065447
 117 H     1.0000    0     1.008    9.947518   -8.515106   20.167157
 118 H     1.0000    0     1.008    7.432293   -7.904724   22.262864
 119 H     1.0000    0     1.008    8.932735  -13.184619   20.276761
 120 H     1.0000    0     1.008    6.387274  -12.578017   22.380027
 121 H     1.0000    0     1.008    9.548786  -12.003540   23.358905
 122 H     1.0000    0     1.008   -2.490659    8.286449   -4.335032
 123 H     1.0000    0     1.008   -4.767779    6.147279   -4.265112
 124 H     1.0000    0     1.008  -12.570458   -2.133501  -11.939290
 125 H     1.0000    0     1.008  -10.918838   -1.751776   -7.524889
 126 H     1.0000    0     1.008  -10.669394    0.459203  -15.380481
 127 H     1.0000    0     1.008   -7.135606    3.416625  -14.409162
 128 H     1.0000    0     1.008   -5.508552    3.760555   -9.985313
 129 H     1.0000    0     1.008  -12.011099    2.252554    2.452865
 130 H     1.0000    0     1.008  -10.852697    4.412511    0.523454
 131 H     1.0000    0     1.008  -11.839134   17.578232    4.739433
 132 H     1.0000    0     1.008   -8.420620   14.418610    3.930630
 133 H     1.0000    0     1.008  -16.291329   16.552111    3.594259
 134 H     1.0000    0     1.008  -17.308002   12.390934    1.636503
 135 H     1.0000    0     1.008  -13.849803    9.274776    0.814472
 136 H     1.0000    0     1.008   -5.495324   11.704964   -3.928741
 137 H     1.0000    0     1.008   -7.923622    9.408946   -3.802129
 138 H     1.0000    0     1.008   -4.370937   10.289559   -8.333692
 139 H     1.0000    0     1.008   -6.755771    7.951968   -8.184404
 140 H     1.0000    0     1.008   -7.674178   13.681617   -7.840474
 141 H     1.0000    0     1.008  -10.045784   11.347805   -7.660950
 142 H     1.0000    0     1.008   -6.591365   12.247315  -12.279440
 143 H     1.0000    0     1.008   -9.819017   13.144935  -12.043225
 144 H     1.0000    0     1.008   -8.976199    9.894606  -12.088578
 145 H     1.0000    0     1.008  -12.778328    2.305466   -3.063246
 146 H     1.0000    0     1.008  -13.925392   -0.045353   -0.999665
 147 H     1.0000    0     1.008  -15.439063    5.565243   -0.842818
 148 H     1.0000    0     1.008  -16.552111    3.229542    1.275565
 149 H     1.0000    0     1.008  -17.347686    3.169071   -4.480541
 150 H     1.0000    0     1.008  -18.447507    0.835259   -2.373496
 151 H     1.0000    0     1.008  -20.067002    6.443966   -2.294128
 152 H     1.0000    0     1.008  -21.172492    4.095037   -0.168186
 153 H     1.0000    0     1.008  -21.918933    3.887167   -3.435522
 154 H     1.0000    0     1.008    7.598589   -1.889726   -4.442746
 155 H     1.0000    0     1.008    7.048678    1.194307   -4.350150
 156 H     1.0000    0     1.008    5.179739   12.583686  -11.655831
 157 H     1.0000    0     1.008    4.329363   10.950963   -7.300012
 158 H     1.0000    0     1.008    6.135941    9.563904  -15.142376
 159 H     1.0000    0     1.008    6.232317    4.934075  -14.273101
 160 H     1.0000    0     1.008    5.372491    3.348595   -9.904055
 161 H     1.0000    0     1.008    8.040785    9.380601    2.511446
 162 H     1.0000    0     1.008    9.204856    7.322689    0.474321
 163 H     1.0000    0     1.008   20.911709    1.177299    4.401172
 164 H     1.0000    0     1.008   16.421720   -0.026456    3.550795
 165 H     1.0000    0     1.008   22.385696    5.544456    3.446860
 166 H     1.0000    0     1.008   19.390480    8.679512    1.606267
 167 H     1.0000    0     1.008   14.921278    7.415285    0.719986
 168 H     1.0000    0     1.008   12.122593   -1.203756   -4.251884
 169 H     1.0000    0     1.008   11.521660    2.078699   -4.087478
 170 H     1.0000    0     1.008   10.198852   -1.358713   -8.598254
 171 H     1.0000    0     1.008    9.524220    1.910513   -8.413061
 172 H     1.0000    0     1.008   14.853247   -0.400622   -8.197632
 173 H     1.0000    0     1.008   14.161608    2.851597   -7.997321
 174 H     1.0000    0     1.008   12.974860   -0.532903  -12.602584
 175 H     1.0000    0     1.008   15.471188    1.702643  -12.406052
 176 H     1.0000    0     1.008   12.279440    2.743882  -12.389045
 177 H     1.0000    0     1.008    8.367707   10.164837   -2.991436
 178 H     1.0000    0     1.008    6.946633   12.300227   -0.865495
 179 H     1.0000    0     1.008   12.545892   10.743093   -0.778567
 180 H     1.0000    0     1.008   11.111590   12.848248    1.388949
 181 H     1.0000    0     1.008   11.455520   13.672169   -4.352039
 182 H     1.0000    0     1.008    9.987203   15.760316   -2.209090
 183 H     1.0000    0     1.008   15.648822   14.333573   -2.135391
 184 H     1.0000    0     1.008   14.165387   16.436838    0.017008
 185 H     1.0000    0     1.008   14.375147   17.239972   -3.235211
 186 H     1.0000    0     1.008   -4.707308   -6.332472   -4.709198
 187 H     1.0000    0     1.008   -2.161847   -8.055903   -4.125272
 188 H     1.0000    0     1.008    9.410836   -7.235761  -12.326684
 189 H     1.0000    0     1.008    8.033226   -6.332472   -7.895276
 190 H     1.0000    0     1.008    6.457194   -9.365483  -15.308671
 191 H     1.0000    0     1.008    2.154288  -10.610812  -13.857362
 192 H     1.0000    0     1.008    0.827700   -9.716972   -9.405167
 193 H     1.0000    0     1.008    4.140390  -11.434733    2.192082
 194 H     1.0000    0     1.008    1.649731  -11.436623    0.311805
 195 H     1.0000    0     1.008   -9.458079  -18.840570    4.573137
 196 H     1.0000    0     1.008   -8.360148  -14.312786    3.788901
 197 H     1.0000    0     1.008   -6.360818  -22.219400    3.501663
 198 H     1.0000    0     1.008   -2.192082  -21.074226    1.634613
 199 H     1.0000    0     1.008   -1.143284  -16.531324    0.848487
 200 H     1.0000    0     1.008   -7.430403   -9.992872   -4.125272
 201 H     1.0000    0     1.008   -4.648726  -11.793781   -3.645282
 202 H     1.0000    0     1.008   -5.984763   -8.940294   -8.535893
 203 H     1.0000    0     1.008   -3.199306  -10.727975   -8.035116
 204 H     1.0000    0     1.008   -8.607703  -12.859586   -7.844253
 205 H     1.0000    0     1.008   -5.826026  -14.630260   -7.362373
 206 H     1.0000    0     1.008   -7.213085  -11.863701  -12.313455
 207 H     1.0000    0     1.008   -7.392609  -15.176391  -11.801340
 208 H     1.0000    0     1.008   -4.408731  -13.640043  -11.825906
 209 H     1.0000    0     1.008    4.227317  -12.271882   -3.305131
 210 H     1.0000    0     1.008    6.969310  -12.041335   -1.398397
 211 H     1.0000    0     1.008    2.830810  -16.085349   -0.861715
 212 H     1.0000    0     1.008    5.518000  -15.832126    1.113049
 213 H     1.0000    0     1.008    5.657840  -16.746753   -4.622270
 214 H     1.0000    0     1.008    8.341251  -16.468963   -2.666404
 215 H     1.0000    0     1.008    4.259443  -20.613133   -2.173185
 216 H     1.0000    0     1.008    6.959861  -20.333453   -0.202201
 217 H     1.0000    0     1.008    7.330248  -21.032652   -3.463868
 218 H     1.0000    0     1.008    7.868820    3.307021   10.419950
 219 H     1.0000    0     1.008    6.445856    6.103815    9.890827
 220 H     1.0000    0     1.008    9.025332    6.776558    6.205861
 221 H     1.0000    0     1.008   10.535223    3.864490    6.816242
 222 H     1.0000    0     1.008   10.438847    8.428179   10.416170
 223 H     1.0000    0     1.008   11.939290    5.510441   11.064347
 224 H     1.0000    0     1.008   13.339577    9.065016    6.678292
 225 H     1.0000    0     1.008   14.849468    6.179404    7.362373
 226 H     1.0000    0     1.008   14.690731   10.811123   10.911279
 227 H     1.0000    0     1.008   17.345796    9.792561    9.119818
 228 H     1.0000    0     1.008   16.185504    7.897166   11.638823
 229 H     1.0000    0     1.008   -6.763330    5.119268   10.491759
 230 H     1.0000    0     1.008   -8.420620    2.462313    9.904055
 231 H     1.0000    0     1.008  -10.291449    4.370937    6.230427
 232 H     1.0000    0     1.008   -8.590695    7.163952    6.901280
 233 H     1.0000    0     1.008  -12.474082    4.667624   10.435068
 234 H     1.0000    0     1.008  -10.778998    7.466308   11.117259
 235 H     1.0000    0     1.008  -14.499869    6.827581    6.691520
 236 H     1.0000    0     1.008  -12.836910    9.620596    7.405837
 237 H     1.0000    0     1.008  -16.739194    7.043009   10.898051
 238 H     1.0000    0     1.008  -17.238082    9.851142    9.119818
 239 H     1.0000    0     1.008  -15.042220    9.836025   11.663390
 240 H     1.0000    0     1.008   -1.069585   -8.326133   10.234757
 241 H     1.0000    0     1.008    2.067360   -8.458414    9.747207
 242 H     1.0000    0     1.008    1.439971  -11.102141    6.098146
 243 H     1.0000    0     1.008   -1.846262  -10.977419    6.668844
 244 H     1.0000    0     1.008    2.129721  -13.065566   10.355699
 245 H     1.0000    0     1.008   -1.154623  -12.921947   10.960412
 246 H     1.0000    0     1.008    1.294462  -15.977634    6.661285
 247 H     1.0000    0     1.008   -1.965315  -15.858582    7.313240
 248 H     1.0000    0     1.008    2.116493  -17.929722   10.933955
 249 H     1.0000    0     1.008   -0.071810  -19.774094    9.168951
 250 H     1.0000    0     1.008   -1.160292  -17.774764   11.640713
 251 H     1.0000    0     1.008   -1.944528    0.738883   -8.768329
 252 H     1.0000    0     1.008    1.368162    1.164071   -8.813683
 253 H     1.0000    0     1.008    1.834924   -2.176965   -5.446191
 254 H     1.0000    0     1.008   -1.479656   -2.562469   -5.389499
 255 H     1.0000    0     1.008    1.283124    2.156178   -4.259443
 256 H     1.0000    0     1.008   -1.874608    1.816027   -4.234876
 257 H     1.0000    0     1.008   -1.336036   -3.817247  -10.117594
 258 H     1.0000    0     1.008    1.950197   -3.322139  -10.232867
 259 H     1.0000    0     1.008   -1.986102   -0.519675  -13.503983
 260 H     1.0000    0     1.008    0.102045   -2.936634  -14.558450
 261 H     1.0000    0     1.008    1.320919    0.041574  -13.596580
 262 C     6.0000    0    12.011   -3.186078   14.076570    8.690850
 263 C     6.0000    0    12.011    2.547351    8.386605   17.538548
 264 C     6.0000    0    12.011   -7.757326   10.930176   20.649037
 265 C     6.0000    0    12.011   -6.245545    9.476977   19.050329
 266 C     6.0000    0    12.011   -9.673508   12.445736   19.645593
 267 C     6.0000    0    12.011   -6.634828    9.520440   16.427389
 268 C     6.0000    0    12.011  -10.074130   12.500538   17.033991
 269 C     6.0000    0    12.011   -8.564239   11.043560   15.437173
 270 C     6.0000    0    12.011   -5.007774    7.946298   14.685062
 271 C     6.0000    0    12.011    7.825356   18.079010    9.692405
 272 C     6.0000    0    12.011    6.181294   16.077790    9.206746
 273 C     6.0000    0    12.011    9.752877   17.808779   11.478197
 274 C     6.0000    0    12.011    6.451525   13.774214   10.493649
 275 C     6.0000    0    12.011   10.032556   15.524100   12.772659
 276 C     6.0000    0    12.011    8.394163   13.517211   12.277551
 277 C     6.0000    0    12.011    4.690300   11.587801    9.943739
 278 C     6.0000    0    12.011   -5.500993   15.444732    9.737759
 279 C     6.0000    0    12.011   -4.943524   18.199952   10.425619
 280 C     6.0000    0    12.011   -7.231982   19.583232   11.510322
 281 C     6.0000    0    12.011    4.796125    9.909724   18.517426
 282 C     6.0000    0    12.011    4.113934   11.591580   20.769980
 283 C     6.0000    0    12.011    6.340031   13.165722   21.720512
 284 C     6.0000    0    12.011  -10.650496   -9.660280    8.484870
 285 C     6.0000    0    12.011   -8.473532   -2.299797   17.394929
 286 C     6.0000    0    12.011   -5.285564  -12.273771   20.427940
 287 C     6.0000    0    12.011   -4.782897  -10.240426   18.825452
 288 C     6.0000    0    12.011   -5.784452  -14.664275   19.418826
 289 C     6.0000    0    12.011   -4.773448  -10.573018   16.194953
 290 C     6.0000    0    12.011   -5.775003  -15.011984   16.801555
 291 C     6.0000    0    12.011   -5.272336  -12.978639   15.200957
 292 C     6.0000    0    12.011   -4.244325   -8.375266   14.448846
 293 C     6.0000    0    12.011  -19.552996   -2.127832    9.425954
 294 C     6.0000    0    12.011  -17.003756   -2.541682    8.887382
 295 C     6.0000    0    12.011  -20.246526   -0.462983   11.355364
 296 C     6.0000    0    12.011  -15.119699   -1.286903   10.266882
 297 C     6.0000    0    12.011  -18.379476    0.789906   12.744313
 298 C     6.0000    0    12.011  -15.832126    0.381725   12.198182
 299 C     6.0000    0    12.011  -12.355029   -1.706423    9.667839
 300 C     6.0000    0    12.011  -10.686401  -12.322904    9.601698
 301 C     6.0000    0    12.011  -13.349025  -13.182730   10.333023
 302 C     6.0000    0    12.011  -13.409497  -15.828346   11.493314
 303 C     6.0000    0    12.011  -10.884823   -1.128167   18.464514
 304 C     6.0000    0    12.011  -11.927951   -2.573807   20.741634
 305 C     6.0000    0    12.011  -14.380816   -1.443751   21.767755
 306 C     6.0000    0    12.011   13.679727   -4.310465    8.613372
 307 C     6.0000    0    12.011    6.100036   -6.254994   17.442172
 308 C     6.0000    0    12.011   13.139266    1.390838   20.688722
 309 C     6.0000    0    12.011   11.143715    0.856046   19.050329
 310 C     6.0000    0    12.011   15.474967    2.165626   19.726851
 311 C     6.0000    0    12.011   11.461189    1.090372   16.427389
 312 C     6.0000    0    12.011   15.803780    2.409401   17.117139
 313 C     6.0000    0    12.011   13.808229    1.876498   15.478747
 314 C     6.0000    0    12.011    9.312570    0.496998   14.637819
 315 C     6.0000    0    12.011   11.701184  -15.754647    9.671618
 316 C     6.0000    0    12.011   10.777108  -13.343356    9.140605
 317 C     6.0000    0    12.011   10.531444  -17.249420   11.508432
 318 C     6.0000    0    12.011    8.660615  -12.402273   10.433178
 319 C     6.0000    0    12.011    8.430068  -16.321565   12.812343
 320 C     6.0000    0    12.011    7.498433  -13.914054   12.271882
 321 C     6.0000    0    12.011    7.630714   -9.802009    9.836025
 322 C     6.0000    0    12.011   16.024878   -3.027341    9.703744
 323 C     6.0000    0    12.011   18.067672   -4.934075   10.457744
 324 C     6.0000    0    12.011   20.410932   -3.705753   11.610477
 325 C     6.0000    0    12.011    6.247435   -8.940294   18.490970
 326 C     6.0000    0    12.011    8.054013   -9.182179   20.735965
 327 C     6.0000    0    12.011    8.242985  -11.880708   21.745079
 328 C     6.0000    0    12.011   -6.066021    9.830355   -4.637388
 329 C     6.0000    0    12.011  -13.496424    1.987992   -1.137615
 330 C     6.0000    0    12.011  -11.020883   -0.835259  -11.519771
 331 C     6.0000    0    12.011  -10.108145   -0.631169   -9.055568
 332 C     6.0000    0    12.011   -9.956967    0.619830  -13.451071
 333 C     6.0000    0    12.011   -8.118263    1.028011   -8.490540
 334 C     6.0000    0    12.011   -7.972755    2.279010  -12.904940
 335 C     6.0000    0    12.011   -7.060017    2.479321  -10.438847
 336 C     6.0000    0    12.011   -7.133716    1.252888   -5.816577
 337 C     6.0000    0    12.011  -12.294558   15.750867    3.894726
 338 C     6.0000    0    12.011  -10.380266   13.991532    3.454419
 339 C     6.0000    0    12.011  -14.790886   15.178280    3.248439
 340 C     6.0000    0    12.011  -10.935845   11.644492    2.352709
 341 C     6.0000    0    12.011  -15.359694   12.844469    2.146729
 342 C     6.0000    0    12.011  -13.441622   11.096472    1.691305
 343 C     6.0000    0    12.011   -8.870374    9.754766    1.825475
 344 C     6.0000    0    12.011   -6.247435    9.862481   -7.519220
 345 C     6.0000    0    12.011   -8.184404   11.771104   -8.503768
 346 C     6.0000    0    12.011   -8.407392   11.769214  -11.383710
 347 C     6.0000    0    12.011  -15.892597    3.533788   -0.684081
 348 C     6.0000    0    12.011  -18.018539    2.870494   -2.528454
 349 C     6.0000    0    12.011  -20.424160    4.404952   -2.086258
 350 C     6.0000    0    12.011   10.831910    0.294797   -4.907619
 351 C     6.0000    0    12.011    8.475422   10.898051   -1.048798
 352 C     6.0000    0    12.011    5.226982   10.554120  -11.281665
 353 C     6.0000    0    12.011    4.752661    9.656501   -8.847698
 354 C     6.0000    0    12.011    5.763665    8.860926  -13.237532
 355 C     6.0000    0    12.011    4.809353    7.054348   -8.341251
[...]
          4921.483         -5.456        -3.434
             1.867       4919.920        -8.329
            -1.812         -3.720      4928.905

Paramagnetic contribution to the shielding tensor (ppm): 
         -1839.937        106.035       132.275
           114.444      -1833.366       -70.654
            99.964        -37.227     -1691.083

Total shielding tensor (ppm): 
          3081.546        100.579       128.841
           116.311       3086.554       -78.983
            98.151        -40.947      3237.822


 Diagonalized sT*s matrix:
 
 sDSO          4922.067         4922.823         4925.418  iso=    4923.436
 sPSO         -1995.887        -1740.598        -1627.901  iso=   -1788.129
        ---------------  ---------------  ---------------
 Total         2926.180         3182.225         3297.517  iso=    3135.307

 --------------
 Nucleus   8Cd:
 --------------

Diamagnetic contribution to the shielding tensor (ppm) : 
          4917.869         -4.103        -0.705
            -1.573       4901.079       -16.141
             2.715         -6.645      4910.684

Paramagnetic contribution to the shielding tensor (ppm): 
         -1682.997         54.944        90.215
            36.441      -1785.885       100.267
           148.455         42.422     -1373.632

Total shielding tensor (ppm): 
          3234.872         50.841        89.509
            34.868       3115.194        84.126
           151.170         35.777      3537.052


 Diagonalized sT*s matrix:
 
 sDSO          4904.879         4916.162         4908.591  iso=    4909.877
 sPSO         -1804.734        -1718.866        -1318.914  iso=   -1614.171
        ---------------  ---------------  ---------------
 Total         3100.146         3197.296         3589.677  iso=    3295.706

 --------------
 Nucleus   9Cd:
 --------------

Diamagnetic contribution to the shielding tensor (ppm) : 
          4915.923         -2.797        -1.917
            -7.772       4906.513         8.821
            -5.375          2.178      4909.854

Paramagnetic contribution to the shielding tensor (ppm): 
         -1743.609        -99.593       -58.596
          -144.157      -1372.204       -62.358
             9.424        -80.937     -1760.686

Total shielding tensor (ppm): 
          3172.314       -102.390       -60.513
          -151.929       3534.309       -53.537
             4.050        -78.759      3149.167


 Diagonalized sT*s matrix:
 
 sDSO          4909.117         4914.452         4908.720  iso=    4910.763
 sPSO         -1818.725        -1730.519        -1327.255  iso=   -1625.500
        ---------------  ---------------  ---------------
 Total         3090.392         3183.933         3581.465  iso=    3285.263

 --------------
 Nucleus  10Cd:
 --------------

Diamagnetic contribution to the shielding tensor (ppm) : 
          4911.259         -0.149        -1.455
            -1.007       4908.806        -1.715
             0.941         -8.745      4911.470

Paramagnetic contribution to the shielding tensor (ppm): 
         -1702.976       -205.894       -74.087
          -198.241      -1506.984       -12.043
           -91.225          0.883     -1929.939

Total shielding tensor (ppm): 
          3208.283       -206.043       -75.542
          -199.248       3401.822       -13.758
           -90.284         -7.862      2981.532


 Diagonalized sT*s matrix:
 
 sDSO          4909.111         4912.909         4909.515  iso=    4910.512
 sPSO         -1970.317        -1791.973        -1377.608  iso=   -1713.300
        ---------------  ---------------  ---------------
 Total         2938.794         3120.936         3531.907  iso=    3197.212

 --------------
 Nucleus  11Cd:
 --------------

Diamagnetic contribution to the shielding tensor (ppm) : 
          4923.379         -4.496         2.122
            -4.508       4925.524        -1.669
             2.112         -1.829      4928.595

Paramagnetic contribution to the shielding tensor (ppm): 
         -1730.363         -1.323        17.661
            -1.543      -1670.469       -64.176
             4.876        -46.905     -2018.612

Total shielding tensor (ppm): 
          3193.016         -5.819        19.783
            -6.051       3255.055       -65.844
             6.988        -48.734      2909.983


 Diagonalized sT*s matrix:
 
 sDSO          4927.838         4922.465         4927.195  iso=    4925.833
 sPSO         -2027.630        -1729.826        -1661.988  iso=   -1806.481
        ---------------  ---------------  ---------------
 Total         2900.207         3192.639         3265.208  iso=    3119.351

 --------------
 Nucleus  12Cd:
 --------------

Diamagnetic contribution to the shielding tensor (ppm) : 
          4905.844         -3.042        -3.813
            -9.345       4914.265        -8.816
            -0.214        -11.359      4910.347

Paramagnetic contribution to the shielding tensor (ppm): 
         -1592.296        210.671        95.110
           184.134      -1531.331       -20.729
           129.999        -35.912     -1757.648

Total shielding tensor (ppm): 
          3313.547        207.629        91.297
           174.788       3382.934       -29.545
           129.786        -47.271      3152.699


 Diagonalized sT*s matrix:
 
 sDSO          4908.210         4919.735         4902.511  iso=    4910.152
 sPSO         -1866.106        -1659.926        -1355.243  iso=   -1627.092
        ---------------  ---------------  ---------------
 Total         3042.103         3259.809         3547.268  iso=    3283.060

 --------------
 Nucleus  13Cd:
 --------------

Diamagnetic contribution to the shielding tensor (ppm) : 
          4906.756        -11.349         1.433
            -9.316       4911.632         4.128
             3.277         -3.116      4913.102

Paramagnetic contribution to the shielding tensor (ppm): 
         -1395.926         43.001        10.197
            46.625      -1736.677        31.909
            38.911         65.252     -1743.818

Total shielding tensor (ppm): 
          3510.830         31.652        11.630
            37.309       3174.955        36.036
            42.187         62.136      3169.284


 Diagonalized sT*s matrix:
 
 sDSO          4912.120         4914.376         4904.993  iso=    4910.497
 sPSO         -1789.213        -1699.492        -1387.717  iso=   -1625.474
        ---------------  ---------------  ---------------
 Total         3122.907         3214.885         3517.276  iso=    3285.023

 --------------
 Nucleus  14Cd:
 --------------

Diamagnetic contribution to the shielding tensor (ppm) : 
          4910.861         -3.992         3.711
            -5.286       4909.442        -4.574
             5.810          3.576      4912.805

Paramagnetic contribution to the shielding tensor (ppm): 
         -1742.411        189.251        31.229
           229.012      -1357.550       -44.306
            13.297       -136.603     -1865.182

Total shielding tensor (ppm): 
          3168.450        185.260        34.940
           223.726       3551.892       -48.879
            19.108       -133.027      3047.622


 Diagonalized sT*s matrix:
 
 sDSO          4909.342         4917.658         4906.108  iso=    4911.036
 sPSO         -1913.908        -1794.467        -1256.768  iso=   -1655.048
        ---------------  ---------------  ---------------
 Total         2995.434         3123.191         3649.340  iso=    3255.988

 --------------
 Nucleus  15Cd:
 --------------

Diamagnetic contribution to the shielding tensor (ppm) : 
          4908.466          4.187         8.120
            -0.741       4912.086        -3.771
             9.907          3.676      4914.007

Paramagnetic contribution to the shielding tensor (ppm): 
         -1356.937        -84.821       -33.671
           -87.119      -1706.954        98.654
           -44.273         21.593     -1711.682

Total shielding tensor (ppm): 
          3551.529        -80.633       -25.551
           -87.860       3205.132        94.883
           -34.366         25.269      3202.325


 Diagonalized sT*s matrix:
 
 sDSO          4911.962         4916.665         4905.932  iso=    4911.520
 sPSO         -1772.231        -1673.308        -1330.034  iso=   -1591.858
        ---------------  ---------------  ---------------
 Total         3139.731         3243.357         3575.898  iso=    3319.662

 --------------
 Nucleus  16Se:
 --------------

Diamagnetic contribution to the shielding tensor (ppm) : 
          2984.407        -10.769        -1.414
             9.614       2986.810        -1.173
            -0.080         -0.855      3014.165

Paramagnetic contribution to the shielding tensor (ppm): 
          -299.425         -6.068      1065.262
           352.937       -215.431      -980.082
            29.655         23.427     -1018.982

Total shielding tensor (ppm): 
          2684.982        -16.837      1063.848
           362.551       2771.379      -981.254
            29.575         22.572      1995.184


 Diagonalized sT*s matrix:
 
 sDSO          3000.876         2984.853         2999.653  iso=    2995.127
 sPSO         -1468.432          -81.449           16.042  iso=    -511.279
        ---------------  ---------------  ---------------
 Total         1532.444         2903.405         3015.695  iso=    2483.848

 --------------
 Nucleus  17Se:
 --------------

Diamagnetic contribution to the shielding tensor (ppm) : 
          3023.660        -10.999         7.539
            -1.797       3035.272         5.376
             6.277          1.533      3035.699

Paramagnetic contribution to the shielding tensor (ppm): 
          -776.977       -426.448      -560.020
          -593.392        -57.784      -901.008
            34.657        271.825        10.686

Total shielding tensor (ppm): 
          2246.683       -437.447      -552.482
          -595.189       2977.487      -895.632
            40.934        273.358      3046.385


 Diagonalized sT*s matrix:
 
 sDSO          3024.422         3034.430         3035.779  iso=    3031.544
 sPSO         -1144.834           11.740          309.019  iso=    -274.692
        ---------------  ---------------  ---------------
 Total         1879.588         3046.170         3344.798  iso=    2756.852

 --------------
 Nucleus  18Se:
 --------------

Diamagnetic contribution to the shielding tensor (ppm) : 
          3027.008          0.103        -9.819
             8.782       3030.301         2.570
            -4.898          1.222      3035.798

Paramagnetic contribution to the shielding tensor (ppm): 
         -1657.764        317.803       441.258
           153.871      -1211.847      1125.345
           -61.319        272.651     -1367.016

Total shielding tensor (ppm): 
          1369.244        317.905       431.439
           162.653       1818.454      1127.915
           -66.217        273.872      1668.782


 Diagonalized sT*s matrix:
 
 sDSO          3027.596         3031.546         3033.965  iso=    3031.035
 sPSO         -1969.856        -1733.913         -532.858  iso=   -1412.209
        ---------------  ---------------  ---------------
 Total         1057.740         1297.633         2501.107  iso=    1618.827

 --------------
 Nucleus  19Se:
 --------------

Diamagnetic contribution to the shielding tensor (ppm) : 
          3033.996         -8.516         1.036
            -0.110       3025.139       -10.712
             0.615         -6.839      3035.836

Paramagnetic contribution to the shielding tensor (ppm): 
         -1518.468        492.590      -864.802
          -238.073      -1819.052       286.505
          -679.174       -141.334      -980.464

Total shielding tensor (ppm): 
          1515.529        484.074      -863.767
          -238.184       1206.087       275.794
          -678.559       -148.174      2055.372


 Diagonalized sT*s matrix:
 
 sDSO          3039.042         3020.442         3035.487  iso=    3031.657
 sPSO         -2122.851        -1745.850         -449.282  iso=   -1439.328
        ---------------  ---------------  ---------------
 Total          916.191         1274.593         2586.205  iso=    1592.330

 --------------
 Nucleus  20Se:
 --------------

Diamagnetic contribution to the shielding tensor (ppm) : 
          3035.060         -2.433        -0.858
            -2.475       3030.097         2.400
             0.327         -1.327      3038.248

Paramagnetic contribution to the shielding tensor (ppm): 
            58.466       -122.560       -16.534
          -301.882      -1452.065       516.501
          -491.554        442.684      -321.239

Total shielding tensor (ppm): 
          3093.526       -124.993       -17.392
          -304.357       1578.032       518.901
          -491.227        441.357      2717.009


 Diagonalized sT*s matrix:
 
 sDSO          3030.315         3036.205         3036.885  iso=    3034.468
 sPSO         -1635.415         -367.004          287.581  iso=    -571.612
        ---------------  ---------------  ---------------
 Total         1394.900         2669.201         3324.467  iso=    2462.856

 --------------
 Nucleus  21Se:
 --------------

Diamagnetic contribution to the shielding tensor (ppm) : 
          3002.066          3.266        -4.535
            -0.993       3015.737         2.841
            -2.602        -11.443      3002.974

Paramagnetic contribution to the shielding tensor (ppm): 
          -856.450      -1069.997       239.939
             5.142       -165.783       138.558
            72.516        838.947      -680.633

Total shielding tensor (ppm): 
          2145.616      -1066.730       235.405
             4.148       2849.953       141.399
            69.914        827.505      2322.341


 Diagonalized sT*s matrix:
 
 sDSO          3009.773         2999.726         3011.279  iso=    3006.926
 sPSO         -1344.236         -602.242          243.611  iso=    -567.622
        ---------------  ---------------  ---------------
 Total         1665.537         2397.484         3254.890  iso=    2439.303

 --------------
 Nucleus  22Se:
 --------------

Diamagnetic contribution to the shielding tensor (ppm) : 
          3009.132        -11.664         6.824
           -13.969       3008.449         5.479
            -1.834          3.735      3002.246

Paramagnetic contribution to the shielding tensor (ppm): 
          -451.855         -2.592        -0.941
           185.001       -855.832        41.139
           129.960       -156.628      -891.607

Total shielding tensor (ppm): 
          2557.277        -14.256         5.884
           171.032       2152.617        46.618
           128.126       -152.893      2110.639


 Diagonalized sT*s matrix:
 
 sDSO          3010.413         3003.195         3006.219  iso=    3006.609
 sPSO          -955.509         -816.050         -427.736  iso=    -733.098
        ---------------  ---------------  ---------------
 Total         2054.905         2187.145         2578.483  iso=    2273.511

 --------------
 Nucleus  23Se:
 --------------

Diamagnetic contribution to the shielding tensor (ppm) : 
          3030.934         -5.347        -0.132
            -6.333       3034.092        -5.673
             0.656         -3.241      3038.718

Paramagnetic contribution to the shielding tensor (ppm): 
         -1070.811       -102.590      -174.396
           -98.191       -828.544      -261.143
          -472.225          6.054      -743.340

Total shielding tensor (ppm): 
          1960.123       -107.937      -174.528
          -104.524       2205.548      -266.816
          -471.569          2.813      2295.378


 Diagonalized sT*s matrix:
 
 sDSO          3029.057         3037.933         3036.753  iso=    3034.581
 sPSO         -1316.478         -793.082         -533.134  iso=    -880.898
        ---------------  ---------------  ---------------
 Total         1712.579         2244.851         2503.619  iso=    2153.683

 --------------
 Nucleus  24Se:
 --------------

Diamagnetic contribution to the shielding tensor (ppm) : 
          3030.089         -2.709         4.011
            -2.871       3036.511        -0.838
             5.031         -1.247      3040.429

Paramagnetic contribution to the shielding tensor (ppm): 
          -413.239        101.313       214.722
           252.925       -835.718       147.113
           218.308       -235.992      -175.301

Total shielding tensor (ppm): 
          2616.849         98.604       218.733
           250.054       2200.793       146.275
           223.339       -237.239      2865.128


 Diagonalized sT*s matrix:
 
 sDSO          3036.553         3028.970         3041.506  iso=    3035.676
 sPSO          -918.464         -460.775          -45.020  iso=    -474.753
        ---------------  ---------------  ---------------
 Total         2118.090         2568.195         2996.485  iso=    2560.923

 --------------
 Nucleus  25Se:
 --------------

Diamagnetic contribution to the shielding tensor (ppm) : 
          3014.007          3.322         0.307
             0.212       3004.513        -8.763
            10.204          2.560      3004.408

Paramagnetic contribution to the shielding tensor (ppm): 
          -434.129        121.537       -71.825
           745.181       -237.848        85.783
           487.507        232.720      -469.161

Total shielding tensor (ppm): 
          2579.877        124.859       -71.518
           745.394       2766.665        77.021
           497.711        235.279      2535.247


 Diagonalized sT*s matrix:
 
 sDSO          3005.268         3006.501         3011.159  iso=    3007.643
 sPSO          -789.262         -549.744          197.867  iso=    -380.380
        ---------------  ---------------  ---------------
 Total         2216.006         2456.757         3209.026  iso=    2627.263



--------------------------------
CHEMICAL SHIELDING SUMMARY (ppm)
--------------------------------


  Nucleus  Element    Isotropic     Anisotropy
  -------  -------  ------------   ------------
      0       Cd        3334.738        528.628 
      1       Cd        3253.883        466.252 
      2       Cd        3291.808        470.943 
      3       Cd        3059.972        221.463 
      4       Cd        3319.638        484.362 
      5       Cd        3264.142        531.821 
      6       Cd        3080.542        157.966 
      7       Cd        3135.307        243.314 
      8       Cd        3295.706        440.956 
      9       Cd        3285.263        444.303 
     10       Cd        3197.212        502.042 
     11       Cd        3119.351        218.784 
     12       Cd        3283.060        396.312 
     13       Cd        3285.023        348.380 
     14       Cd        3255.988        590.027 
     15       Cd        3319.662        384.354 
     16       Se        2483.848        797.771 
     17       Se        2756.852        881.919 
     18       Se        1618.827       1323.421 
     19       Se        1592.330       1490.813 
     20       Se        2462.856       1292.416 
     21       Se        2439.303       1223.380 
     22       Se        2273.511        457.458 
     23       Se        2153.683        524.904 
     24       Se        2560.923        653.343 
     25       Se        2627.263        872.644 



Maximum memory used throughout the entire EPRNMR-calculation: 8106.4 MB

Timings for individual modules:

Sum of individual times         ...    21595.915 sec (= 359.932 min)
GTO integral calculation        ...       28.301 sec (=   0.472 min)   0.1 %
Relativistic integrals          ...      100.097 sec (=   1.668 min)   0.5 %
SCF iterations                  ...     9992.761 sec (= 166.546 min)  46.3 %
EPR/NMR calculation             ...    11474.755 sec (= 191.246 min)  53.1 %
                             ****ORCA TERMINATED NORMALLY****
TOTAL RUN TIME: 0 days 6 hours 0 minutes 2 seconds 407 msec
