
                                 *****************
                                 * O   R   C   A *
                                 *****************

                                            #,                                       
                                            ###                                      
                                            ####                                     
                                            #####                                    
                                            ######                                   
                                           ########,                                 
                                     ,,################,,,,,                         
                               ,,#################################,,                 
                          ,,##########################################,,             
                       ,#########################################, ''#####,          
                    ,#############################################,,   '####,        
                  ,##################################################,,,,####,       
                ,###########''''           ''''###############################       
              ,#####''   ,,,,##########,,,,          '''####'''          '####       
            ,##' ,,,,###########################,,,                        '##       
           ' ,,###''''                  '''############,,,                           
         ,,##''                                '''############,,,,        ,,,,,,###''
      ,#''                                            '''#######################'''  
     '                                                          ''''####''''         
             ,#######,   #######,   ,#######,      ##                                
            ,#'     '#,  ##    ##  ,#'     '#,    #''#        ######   ,####,        
            ##       ##  ##   ,#'  ##            #'  '#       #        #'  '#        
            ##       ##  #######   ##           ,######,      #####,   #    #        
            '#,     ,#'  ##    ##  '#,     ,#' ,#      #,         ##   #,  ,#        
             '#######'   ##     ##  '#######'  #'      '#     #####' # '####'        



                  #######################################################
                  #                        -***-                        #
                  #          Department of theory and spectroscopy      #
                  #    Directorship and core code : Frank Neese         #
                  #        Max Planck Institute fuer Kohlenforschung    #
                  #                Kaiser Wilhelm Platz 1               #
                  #                 D-45470 Muelheim/Ruhr               #
                  #                      Germany                        #
                  #                                                     #
                  #                  All rights reserved                #
                  #                        -***-                        #
                  #######################################################


                         Program Version 5.0.3 -  RELEASE  -


 With contributions from (in alphabetic order):
   Daniel Aravena         : Magnetic Suceptibility
   Michael Atanasov       : Ab Initio Ligand Field Theory (pilot matlab implementation)
   Alexander A. Auer      : GIAO ZORA, VPT2 properties, NMR spectrum
   Ute Becker             : Parallelization
   Giovanni Bistoni       : ED, misc. LED, open-shell LED, HFLD
   Martin Brehm           : Molecular dynamics
   Dmytro Bykov           : SCF Hessian
   Vijay G. Chilkuri      : MRCI spin determinant printing, contributions to CSF-ICE
   Dipayan Datta          : RHF DLPNO-CCSD density
   Achintya Kumar Dutta   : EOM-CC, STEOM-CC
   Dmitry Ganyushin       : Spin-Orbit,Spin-Spin,Magnetic field MRCI
   Miquel Garcia          : C-PCM and meta-GGA Hessian, CC/C-PCM, Gaussian charge scheme
   Yang Guo               : DLPNO-NEVPT2, F12-NEVPT2, CIM, IAO-localization
   Andreas Hansen         : Spin unrestricted coupled pair/coupled cluster methods
   Benjamin Helmich-Paris : MC-RPA, TRAH-SCF, COSX integrals
   Lee Huntington         : MR-EOM, pCC
   Robert Izsak           : Overlap fitted RIJCOSX, COSX-SCS-MP3, EOM
   Marcus Kettner         : VPT2
   Christian Kollmar      : KDIIS, OOCD, Brueckner-CCSD(T), CCSD density, CASPT2, CASPT2-K
   Simone Kossmann        : Meta GGA functionals, TD-DFT gradient, OOMP2, MP2 Hessian
   Martin Krupicka        : Initial AUTO-CI
   Lucas Lang             : DCDCAS
   Marvin Lechner         : AUTO-CI (C++ implementation), FIC-MRCC
   Dagmar Lenk            : GEPOL surface, SMD
   Dimitrios Liakos       : Extrapolation schemes; Compound Job, initial MDCI parallelization
   Dimitrios Manganas     : Further ROCIS development; embedding schemes
   Dimitrios Pantazis     : SARC Basis sets
   Anastasios Papadopoulos: AUTO-CI, single reference methods and gradients
   Taras Petrenko         : DFT Hessian,TD-DFT gradient, ASA, ECA, R-Raman, ABS, FL, XAS/XES, NRVS
   Peter Pinski           : DLPNO-MP2, DLPNO-MP2 Gradient
   Christoph Reimann      : Effective Core Potentials
   Marius Retegan         : Local ZFS, SOC
   Christoph Riplinger    : Optimizer, TS searches, QM/MM, DLPNO-CCSD(T), (RO)-DLPNO pert. Triples
   Tobias Risthaus        : Range-separated hybrids, TD-DFT gradient, RPA, STAB
   Michael Roemelt        : Original ROCIS implementation
   Masaaki Saitow         : Open-shell DLPNO-CCSD energy and density
   Barbara Sandhoefer     : DKH picture change effects
   Avijit Sen             : IP-ROCIS
   Kantharuban Sivalingam : CASSCF convergence, NEVPT2, FIC-MRCI
   Bernardo de Souza      : ESD, SOC TD-DFT
   Georgi Stoychev        : AutoAux, RI-MP2 NMR, DLPNO-MP2 response
   Willem Van den Heuvel  : Paramagnetic NMR
   Boris Wezisla          : Elementary symmetry handling
   Frank Wennmohs         : Technical directorship


 We gratefully acknowledge several colleagues who have allowed us to
 interface, adapt or use parts of their codes:
   Stefan Grimme, W. Hujo, H. Kruse, P. Pracht,  : VdW corrections, initial TS optimization,
                  C. Bannwarth, S. Ehlert          DFT functionals, gCP, sTDA/sTD-DF
   Ed Valeev, F. Pavosevic, A. Kumar             : LibInt (2-el integral package), F12 methods
   Garnet Chan, S. Sharma, J. Yang, R. Olivares  : DMRG
   Ulf Ekstrom                                   : XCFun DFT Library
   Mihaly Kallay                                 : mrcc  (arbitrary order and MRCC methods)
   Jiri Pittner, Ondrej Demel                    : Mk-CCSD
   Frank Weinhold                                : gennbo (NPA and NBO analysis)
   Christopher J. Cramer and Donald G. Truhlar   : smd solvation model
   Lars Goerigk                                  : TD-DFT with DH, B97 family of functionals
   V. Asgeirsson, H. Jonsson                     : NEB implementation
   FAccTs GmbH                                   : IRC, NEB, NEB-TS, DLPNO-Multilevel, CI-OPT
                                                   MM, QMMM, 2- and 3-layer-ONIOM, Crystal-QMMM,
                                                   LR-CPCM, SF, NACMEs, symmetry and pop. for TD-DFT,
                                                   nearIR, NL-DFT gradient (VV10), updates on ESD,
                                                   ML-optimized integration grids
   S Lehtola, MJT Oliveira, MAL Marques          : LibXC Library
   Liviu Ungur et al                             : ANISO software


 Your calculation uses the libint2 library for the computation of 2-el integrals
 For citations please refer to: http://libint.valeyev.net

 Your ORCA version has been built with support for libXC version: 5.1.0
 For citations please refer to: https://tddft.org/programs/libxc/

 This ORCA versions uses:
   CBLAS   interface :  Fast vector & matrix operations
   LAPACKE interface :  Fast linear algebra routines
   SCALAPACK package :  Parallel linear algebra routines
   Shared memory     :  Shared parallel matrices
   BLAS/LAPACK       :  OpenBLAS 0.3.15  USE64BITINT DYNAMIC_ARCH NO_AFFINITY Zen SINGLE_THREADED
        Core in use  :  Zen
   Copyright (c) 2011-2014, The OpenBLAS Project



Warning: The global flag for chemical shieldings has been found
         but shieldings for certain elements have also been explicitly requested in the EPRNMR block
         ==>> only the requested shieldings will be calculated

================================================================================

----- Orbital basis set information -----
The basis set includes element-specific modifications.

Your calculation utilizes the basis: def2-SVP
   F. Weigend and R. Ahlrichs, Phys. Chem. Chem. Phys. 7, 3297 (2005).

Your calculation utilizes the basis: SARC-ZORA-TZVP 
   Rb-Xe:  J. D. Rolfes, F. Neese and D. A. Pantazis, J. Comput. Chem. 41, 1842 (2020).
   La-Lu:  D. A. Pantazis and F. Neese, J. Chem. Theory Comput. 5, 2229 (2009).
   Hf-Hg:  D. A. Pantazis, X. Y. Chen, C. R. Landis and F. Neese, J. Chem. Theory Comput. 4, 908 (2008).
   Tl-Rn:  D. A. Pantazis and F. Neese, Theor. Chem. Acc. 131, 1292 (2012).
   Ac-Lr:  D. A. Pantazis and F. Neese, J. Chem. Theory Comput. 7, 677 (2011).

----- AuxJ basis set information -----
Your calculation utilizes the auxiliary basis: SARC/J 
   decontracted def2/J up to Kr:
   F. Weigend, Phys. Chem. Chem. Phys. 8, 1057 (2006)
   and SARC auxiliary basis sets beyond Kr:
   D. A. Pantazis and F. Neese, J. Chem. Theory Comput. 5, 2229 (2009).
   D. A. Pantazis, X. Y. Chen, C. R. Landis and F. Neese, J. Chem. Theory Comput. 4, 908 (2008).
   D. A. Pantazis and F. Neese, Theor. Chem. Acc. 131, 1292 (2012).
   D. A. Pantazis and F. Neese, J. Chem. Theory Comput. 7, 677 (2011).

================================================================================
                                        WARNINGS
                       Please study these warnings very carefully!
================================================================================


WARNING: In scalar relativistic gradient/hessian runs we need the one-center approximation
  ===> : %rel OneCenter is turned on

WARNING: Geometry Optimization
  ===> : Switching off AutoStart
         For restart on a previous wavefunction, please use MOREAD
GIAOs and ZORA requested, numerical integration invoked ! 

INFO   : the flag for use of the SHARK integral package has been found!

================================================================================
                                       INPUT FILE
================================================================================
NAME = me2cd_se_tzvp.inp
|  1> ! PBE0 ZORA SARC/J TIGHTOPT FREQ NMR
|  2> 
|  3> %basis
|  4>     NewGTO H   "def2-SVP" end
|  5>     NewGTO C   "def2-SVP" end
|  6>     NewGTO Cd  "SARC-ZORA-TZVP"  end
|  7> end
|  8> 
|  9> # run in parallel
| 10> %PAL NPROCS 16 END
| 11> 
| 12> 
| 13> %maxcore 20000
| 14> 
| 15> * xyz 0 1 #charge & multiplicity (2*s+1)
| 16> Cd         0.00000        0.00000        0.00000
| 17> C          2.25000        0.00000        0.00000
| 18> C         -2.25000        0.00000        0.00000
| 19> H         -2.61380       -0.71870       -0.73430
| 20> H         -2.61380       -0.27470        0.99010
| 21> H         -2.61380        0.99440       -0.25850
| 22> H          2.61380       -0.72180       -0.73130
| 23> H          2.61380        0.99400       -0.26020
| 24> H          2.61380       -0.27110        0.99110
| 25> *
| 26> 
| 27> %eprnmr 
| 28>     nuclei = all Cd {shift}
| 29> end
| 30> 
| 31>                          ****END OF INPUT****
================================================================================

                       *****************************
                       * Geometry Optimization Run *
                       *****************************

Geometry optimization settings:
Update method            Update   .... BFGS
Choice of coordinates    CoordSys .... Z-matrix Internals
Initial Hessian          InHess   .... Almoef's Model

Convergence Tolerances:
Energy Change            TolE     ....  1.0000e-06 Eh
Max. Gradient            TolMAXG  ....  1.0000e-04 Eh/bohr
RMS Gradient             TolRMSG  ....  3.0000e-05 Eh/bohr
Max. Displacement        TolMAXD  ....  1.0000e-03 bohr
RMS Displacement         TolRMSD  ....  6.0000e-04 bohr
Strict Convergence                ....  False
------------------------------------------------------------------------------
                        ORCA OPTIMIZATION COORDINATE SETUP
------------------------------------------------------------------------------

The optimization will be done in new redundant internal coordinates
Making redundant internal coordinates   ...  (new redundants) done
Evaluating the initial hessian          ...  (Almloef) done
Evaluating the coordinates              ...  done
Calculating the B-matrix                .... done
Calculating the G-matrix                .... done
Diagonalizing the G-matrix              .... done
The first mode is                       ....   10
The number of degrees of freedom        ....   21

    -----------------------------------------------------------------
                    Redundant Internal Coordinates


    -----------------------------------------------------------------
         Definition                    Initial Value    Approx d2E/dq
    -----------------------------------------------------------------
      1. B(C   1,Cd  0)                  2.2500         0.268404   
      2. B(C   2,Cd  0)                  2.2500         0.268404   
      3. B(H   3,C   2)                  1.0900         0.360114   
      4. B(H   4,C   2)                  1.0900         0.360095   
      5. B(H   5,C   2)                  1.0900         0.360158   
      6. B(H   6,C   1)                  1.0900         0.360072   
      7. B(H   7,C   1)                  1.0900         0.360106   
      8. B(H   8,C   1)                  1.0900         0.360085   
      9. L(C   1,Cd  0,C   2,H   6, 2) 180.0000         0.404077   
     10. L(C   1,Cd  0,C   2,H   6, 1) 180.0000         0.404077   
     11. A(Cd  0,C   1,H   7)          109.4973         0.341181   
     12. A(H   7,C   1,H   8)          109.4186         0.290838   
     13. A(Cd  0,C   1,H   8)          109.4970         0.341178   
     14. A(H   6,C   1,H   7)          109.4096         0.290837   
     15. A(Cd  0,C   1,H   6)          109.4969         0.341176   
     16. A(H   6,C   1,H   8)          109.5078         0.290834   
     17. A(H   3,C   2,H   5)          109.2920         0.290849   
     18. A(Cd  0,C   2,H   5)          109.4981         0.341190   
     19. A(Cd  0,C   2,H   3)          109.4974         0.341183   
     20. A(H   3,C   2,H   4)          109.5338         0.290841   
     21. A(H   4,C   2,H   5)          109.5087         0.290846   
     22. A(Cd  0,C   2,H   4)          109.4972         0.341180   
     23. D(H   3,C   2,C   1,H   7)    119.7157         0.001500   
     24. D(H   3,C   2,C   1,H   8)   -120.3170         0.001500   
     25. D(H   4,C   2,C   1,H   6)    119.8681         0.001500   
     26. D(H   4,C   2,C   1,H   7)   -120.1757         0.001500   
     27. D(H   4,C   2,C   1,H   8)     -0.2083         0.001500   
     28. D(H   5,C   2,C   1,H   6)   -120.0536         0.001500   
     29. D(H   5,C   2,C   1,H   7)     -0.0974         0.001500   
     30. D(H   5,C   2,C   1,H   8)    119.8700         0.001500   
     31. D(H   3,C   2,C   1,H   6)     -0.2405         0.001500   
    -----------------------------------------------------------------

Number of atoms                         .... 9
Number of degrees of freedom            .... 31

         *************************************************************
         *                GEOMETRY OPTIMIZATION CYCLE   1            *
         *************************************************************
---------------------------------
CARTESIAN COORDINATES (ANGSTROEM)
---------------------------------
  Cd     0.000000    0.000000    0.000000
  C      2.250000    0.000000    0.000000
  C     -2.250000    0.000000    0.000000
  H     -2.613800   -0.718700   -0.734300
  H     -2.613800   -0.274700    0.990100
  H     -2.613800    0.994400   -0.258500
  H      2.613800   -0.721800   -0.731300
  H      2.613800    0.994000   -0.260200
  H      2.613800   -0.271100    0.991100

----------------------------
CARTESIAN COORDINATES (A.U.)
----------------------------
  NO LB      ZA    FRAG     MASS         X           Y           Z
   0 Cd   48.0000    0   112.410    0.000000    0.000000    0.000000
   1 C     6.0000    0    12.011    4.251884    0.000000    0.000000
   2 C     6.0000    0    12.011   -4.251884    0.000000    0.000000
   3 H     1.0000    0     1.008   -4.939366   -1.358146   -1.387626
   4 H     1.0000    0     1.008   -4.939366   -0.519108    1.871018
   5 H     1.0000    0     1.008   -4.939366    1.879144   -0.488494
   6 H     1.0000    0     1.008    4.939366   -1.364004   -1.381957
   7 H     1.0000    0     1.008    4.939366    1.878388   -0.491707
   8 H     1.0000    0     1.008    4.939366   -0.512305    1.872908

--------------------------------
INTERNAL COORDINATES (ANGSTROEM)
--------------------------------
 Cd     0   0   0     0.000000000000     0.00000000     0.00000000
 C      1   0   0     2.250000000000     0.00000000     0.00000000
 C      1   2   0     2.250000000000   180.00000000     0.00000000
 H      3   1   2     1.089989275177   109.49744065     0.00000000
 H      3   1   2     1.090003917424   109.49716813     0.00000000
 H      3   1   2     1.089955985350   109.49806025     0.00000000
 H      2   1   3     1.090020811728   109.49685371     0.00000000
 H      2   1   3     1.089995633019   109.49732232     0.00000000
 H      2   1   3     1.090011403610   109.49702881     0.00000000

---------------------------
INTERNAL COORDINATES (A.U.)
---------------------------
 Cd     0   0   0     0.000000000000     0.00000000     0.00000000
 C      1   0   0     4.251883801323     0.00000000     0.00000000
 C      1   2   0     4.251883801323   180.00000000     0.00000000
 H      3   1   2     2.059781218995   109.49744065     0.00000000
 H      3   1   2     2.059808888833   109.49716813     0.00000000
 H      3   1   2     2.059718310340   109.49806025     0.00000000
 H      2   1   3     2.059840814440   109.49685371     0.00000000
 H      2   1   3     2.059793233576   109.49732232     0.00000000
 H      2   1   3     2.059823035674   109.49702881     0.00000000

---------------------
BASIS SET INFORMATION
---------------------
There are 3 groups of distinct atoms

 Group   1 Type Cd  : 22s15p9d1f contracted to 15s10p5d1f pattern {811111111111111/6111111111/51111/1}
 Group   2 Type C   : 7s4p1d contracted to 3s2p1d pattern {511/31/1}
 Group   3 Type H   : 4s1p contracted to 2s1p pattern {31/1}

Atom   0Cd   basis set group =>   1
Atom   1C    basis set group =>   2
Atom   2C    basis set group =>   2
Atom   3H    basis set group =>   3
Atom   4H    basis set group =>   3
Atom   5H    basis set group =>   3
Atom   6H    basis set group =>   3
Atom   7H    basis set group =>   3
Atom   8H    basis set group =>   3
---------------------------------
AUXILIARY/J BASIS SET INFORMATION
---------------------------------
There are 3 groups of distinct atoms

 Group   1 Type Cd  : 24s7p6d3f4g contracted to 24s7p6d3f4g pattern {111111111111111111111111/1111111/111111/111/1111}
 Group   2 Type C   : 12s5p4d2f1g contracted to 12s5p4d2f1g pattern {111111111111/11111/1111/11/1}
 Group   3 Type H   : 5s2p1d contracted to 5s2p1d pattern {11111/11/1}

Atom   0Cd   basis set group =>   1
Atom   1C    basis set group =>   2
Atom   2C    basis set group =>   2
Atom   3H    basis set group =>   3
Atom   4H    basis set group =>   3
Atom   5H    basis set group =>   3
Atom   6H    basis set group =>   3
Atom   7H    basis set group =>   3
Atom   8H    basis set group =>   3


           ************************************************************
           *        Program running with 16 parallel MPI-processes    *
           *              working on a common directory               *
           ************************************************************
------------------------------------------------------------------------------
                           ORCA GTO INTEGRAL CALCULATION
                           -- RI-GTO INTEGRALS CHOSEN --
------------------------------------------------------------------------------
------------------------------------------------------------------------------
                   ___                                                        
                  /   \      - P O W E R E D   B Y -                         
                 /     \                                                     
                 |  |  |   _    _      __       _____    __    __             
                 |  |  |  | |  | |    /  \     |  _  \  |  |  /  |          
                  \  \/   | |  | |   /    \    | | | |  |  | /  /          
                 / \  \   | |__| |  /  /\  \   | |_| |  |  |/  /          
                |  |  |   |  __  | /  /__\  \  |    /   |      \           
                |  |  |   | |  | | |   __   |  |    \   |  |\   \          
                \     /   | |  | | |  |  |  |  | |\  \  |  | \   \       
                 \___/    |_|  |_| |__|  |__|  |_| \__\ |__|  \__/        
                                                                              
                      - O R C A' S   B I G   F R I E N D -                    
                                      &                                       
                       - I N T E G R A L  F E E D E R -                       
                                                                              
 v1 FN, 2020, v2 2021                                                         
------------------------------------------------------------------------------


Reading SHARK input file me2cd_se_tzvp.SHARKINP.tmp ... ok
----------------------
SHARK INTEGRAL PACKAGE
----------------------

Number of atoms                             ...      9
Number of basis functions                   ...    135
Number of shells                            ...     61
Maximum angular momentum                    ...      3
Integral batch strategy                     ... SHARK/LIBINT Hybrid
RI-J (if used) integral strategy            ... SPLIT-RIJ (Revised 2003 algorithm where possible)
Printlevel                                  ...      1
Contraction scheme used                     ... SEGMENTED contraction
Coulomb Range Separation                    ... NOT USED
Exchange Range Separation                   ... NOT USED
Finite Nucleus Model                        ... NOT USED
Auxiliary Coulomb fitting basis             ... AVAILABLE
   # of basis functions in Aux-J            ...    368
   # of shells in Aux-J                     ...    140
   Maximum angular momentum in Aux-J        ...      4
Auxiliary J/K fitting basis                 ... NOT available
Auxiliary Correlation fitting basis         ... NOT available
Auxiliary 'external' fitting basis          ... NOT available
Integral threshold                          ...     2.500000e-11
Primitive cut-off                           ...     2.500000e-12
Primitive pair pre-selection threshold      ...     2.500000e-12

Calculating pre-screening integrals         ... done (  0.0 sec) Dimension = 61
Organizing shell pair data                  ... done (  0.0 sec)
Shell pair information
Total number of shell pairs                 ...      1891
Shell pairs after pre-screening             ...      1811
Total number of primitive shell pairs       ...      5248
Primitive shell pairs kept                  ...      3912
          la=0 lb=0:    532 shell pairs
          la=1 lb=0:    630 shell pairs
          la=1 lb=1:    201 shell pairs
          la=2 lb=0:    225 shell pairs
          la=2 lb=1:    134 shell pairs
          la=2 lb=2:     28 shell pairs
          la=3 lb=0:     33 shell pairs
          la=3 lb=1:     20 shell pairs
          la=3 lb=2:      7 shell pairs
          la=3 lb=3:      1 shell pairs

Calculating one electron integrals          ... done (  0.0 sec)
Calculating RI/J V-Matrix + Cholesky decomp.... done (  0.0 sec)
Calculating Nuclear repulsion               ... done (  0.0 sec) ENN=    217.940022539860 Eh

SHARK setup successfully completed in   0.1 seconds

Maximum memory used throughout the entire GTOINT-calculation: 18.9 MB


           ************************************************************
           *        Program running with 16 parallel MPI-processes    *
           *              working on a common directory               *
           ************************************************************
------------------------------------------------------------------------------
                          ORCA RELATIVISTIC HAMILTONIAN
------------------------------------------------------------------------------

Relativistic Method            ... ZORA(MP)
Treatment of potential         ... Van Wuellen
Nucleus model                  ... Point Nucleus
Speed of light used            ... 137.03598950000000


            *************************************************
            *         ZERO ORDER REGULAR APPROXIMATION      *
            *                     ZORA(MP)                  *
            *            Programmed by FN according to      *
            *                   C. van Wuellen              *
            *       J. Chem. Phys. (1998) vol 109, 392-399  *
            *************************************************

Terms included in model potential: +V(e,N)+V(C)+V(Xa)+V(VWN-V)
Basis function cutoff value   ... 1.000000e-11
Loading the fitted atomic densities (ZORA)   ... done
Calculating the cutoffs                      ... done
Number of fit functions                      ... 81
One center approximation for ZORA is active
Finding unique atoms                  ... 3 atom types
AtomType   0 (Cd) Member=  0 NMembers=   1, NRad=2000 NumBF= 77
             ... doing numerical integration
             ... adding submatrices to 1 actual atoms
AtomType   1 (C ) Member=  1 NMembers=   2, NRad=2000 NumBF= 14
             ... doing numerical integration
             ... adding submatrices to 2 actual atoms
AtomType   2 (H ) Member=  3 NMembers=   6, NRad=2000 NumBF=  5
             ... doing numerical integration
             ... adding submatrices to 6 actual atoms
             ... done with one-center part

Maximum memory used throughout the entire REL-calculation: 0.9 MB


           ************************************************************
           *        Program running with 16 parallel MPI-processes    *
           *              working on a common directory               *
           ************************************************************
-------------------------------------------------------------------------------
                                 ORCA SCF
-------------------------------------------------------------------------------

------------
SCF SETTINGS
------------
Hamiltonian:
 Density Functional     Method          .... DFT(GTOs)
 Exchange Functional    Exchange        .... PBE
   PBE kappa parameter   XKappa         ....  0.804000
   PBE mue parameter    XMuePBE         ....  0.219520
 Correlation Functional Correlation     .... PBE
   PBE beta parameter  CBetaPBE         ....  0.066725
 LDA part of GGA corr.  LDAOpt          .... PW91-LDA
 Gradients option       PostSCFGGA      .... off
 Hybrid DFT is turned on
   Fraction HF Exchange ScalHFX         ....  0.250000
   Scaling of DF-GGA-X  ScalDFX         ....  0.750000
   Scaling of DF-GGA-C  ScalDFC         ....  1.000000
   Scaling of DF-LDA-C  ScalLDAC        ....  1.000000
   Perturbative correction              ....  0.000000
   Density functional embedding theory  .... OFF
   NL short-range parameter             ....  6.900000
 RI-approximation to the Coulomb term is turned on
   Number of AuxJ basis functions       .... 368
   RIJ-COSX (HFX calculated with COS-X)).... on

Relativistic Settings:
 Scalar relativistic method             .... ZORA
 Speed of light used       Velit        ....       137.035989
Orbital energies will be scaled


General Settings:
 Integral files         IntName         .... me2cd_se_tzvp
 Hartree-Fock type      HFTyp           .... RHF
 Total Charge           Charge          ....    0
 Multiplicity           Mult            ....    1
 Number of Electrons    NEL             ....   66
 Basis Dimension        Dim             ....  135
 Nuclear Repulsion      ENuc            ....    217.9400225399 Eh

Convergence Acceleration:
 DIIS                   CNVDIIS         .... on
   Start iteration      DIISMaxIt       ....    12
   Startup error        DIISStart       ....  0.200000
   # of expansion vecs  DIISMaxEq       ....     5
   Bias factor          DIISBfac        ....   1.050
   Max. coefficient     DIISMaxC        ....  10.000
 Trust-Rad. Augm. Hess. CNVTRAH         .... auto
   Auto Start mean grad. ratio tolernc. ....  1.125000
   Auto Start start iteration           ....    20
   Auto Start num. interpolation iter.  ....    10
   Max. Number of Micro iterations      ....    16
   Max. Number of Macro iterations      .... Maxiter - #DIIS iter
   Number of Davidson start vectors     ....     2
   Converg. threshold I  (grad. norm)   ....   1.000e-05
   Converg. threshold II (energy diff.) ....   1.000e-08
   Grad. Scal. Fac. for Micro threshold ....   0.100
   Minimum threshold for Micro iter.    ....   0.010
   NR start threshold (gradient norm)   ....   0.001
   Initial trust radius                 ....   0.400
   Minimum AH scaling param. (alpha)    ....   1.000
   Maximum AH scaling param. (alpha)    .... 1000.000
   Orbital update algorithm             .... Taylor
   White noise on init. David. guess    .... on
   Maximum white noise                  ....   0.010
   Quad. conv. algorithm                .... NR
 SOSCF                  CNVSOSCF        .... off
 Level Shifting         CNVShift        .... on
   Level shift para.    LevelShift      ....    0.2500
   Turn off err/grad.   ShiftErr        ....    0.0010
 Zerner damping         CNVZerner       .... off
 Static damping         CNVDamp         .... on
   Fraction old density DampFac         ....    0.7000
   Max. Damping (<1)    DampMax         ....    0.9800
   Min. Damping (>=0)   DampMin         ....    0.0000
   Turn off err/grad.   DampErr         ....    0.1000
 Fernandez-Rico         CNVRico         .... off

SCF Procedure:
 Maximum # iterations   MaxIter         ....   125
 SCF integral mode      SCFMode         .... Direct
   Integral package                     .... SHARK and LIBINT hybrid scheme
 Reset frequency        DirectResetFreq ....    20
 Integral Threshold     Thresh          ....  2.500e-11 Eh
 Primitive CutOff       TCut            ....  2.500e-12 Eh

Convergence Tolerance:
 Convergence Check Mode ConvCheckMode   .... Total+1el-Energy
 Convergence forced     ConvForced      .... 0
 Energy Change          TolE            ....  1.000e-08 Eh
 1-El. energy change                    ....  1.000e-05 Eh
 DIIS Error             TolErr          ....  5.000e-07


Diagonalization of the overlap matrix:
Smallest eigenvalue                        ... 6.937e-04
Time for diagonalization                   ...    0.002 sec
Threshold for overlap eigenvalues          ... 1.000e-08
Number of eigenvalues below threshold      ... 0
Time for construction of square roots      ...    0.001 sec
Total time needed                          ...    0.003 sec

Time for model grid setup =    0.077 sec

------------------------------
INITIAL GUESS: MODEL POTENTIAL
------------------------------
Loading ZORA relativistic densities                ... done
Calculating cut-offs                               ... done
Initializing the effective Hamiltonian             ... done
Setting up the integral package (SHARK)            ... done
Starting the Coulomb interaction                   ... done (   0.0 sec)
Reading the grid                                   ... done
Mapping shells                                     ... done
Starting the XC term evaluation                    ... done (   0.0 sec)
  promolecular density results
     # of electrons  =     65.998021962
     EX              =   -169.697917249
     EC              =     -3.081306527
     EX+EC           =   -172.779223776
Transforming the Hamiltonian                       ... done (   0.0 sec)
Diagonalizing the Hamiltonian                      ... done (   0.0 sec)
Back transforming the eigenvectors                 ... done (   0.0 sec)
Now organizing SCF variables                       ... done
                      ------------------
                      INITIAL GUESS DONE (   0.1 sec)
                      ------------------
-------------------
DFT GRID GENERATION
-------------------

General Integration Accuracy     IntAcc      ... 4.388
Radial Grid Type                 RadialGrid  ... OptM3 with GC (2021)
Angular Grid (max. ang.)         AngularGrid ... 4 (Lebedev-302)
Angular grid pruning method      GridPruning ... 4 (adaptive)
Weight generation scheme         WeightScheme... Becke
Basis function cutoff            BFCut       ... 1.0000e-11
Integration weight cutoff        WCut        ... 1.0000e-14
Angular grids for H and He will be reduced by one unit
Partially contracted basis set               ... off
Rotationally invariant grid construction     ... off

Total number of grid points                  ...    58169
Total number of batches                      ...      914
Average number of points per batch           ...       63
Average number of grid points per atom       ...     6463
Time for grid setup =    0.369 sec

--------------------
COSX GRID GENERATION
--------------------

GRIDX 1
-------
General Integration Accuracy     IntAcc      ... 3.816
Radial Grid Type                 RadialGrid  ... OptM3 with GC (2021)
Angular Grid (max. ang.)         AngularGrid ... 1 (Lebedev-50)
Angular grid pruning method      GridPruning ... 4 (adaptive)
Weight generation scheme         WeightScheme... Becke
Basis function cutoff            BFCut       ... 1.0000e-11
Integration weight cutoff        WCut        ... 1.0000e-14
Angular grids for H and He will be reduced by one unit
Partially contracted basis set               ... on
Rotationally invariant grid construction     ... off

Total number of grid points                  ...     6859
Total number of batches                      ...      110
Average number of points per batch           ...       62
Average number of grid points per atom       ...      762
UseSFitting                                  ... on

GRIDX 2
-------
General Integration Accuracy     IntAcc      ... 4.020
Radial Grid Type                 RadialGrid  ... OptM3 with GC (2021)
Angular Grid (max. ang.)         AngularGrid ... 2 (Lebedev-110)
Angular grid pruning method      GridPruning ... 4 (adaptive)
Weight generation scheme         WeightScheme... Becke
Basis function cutoff            BFCut       ... 1.0000e-11
Integration weight cutoff        WCut        ... 1.0000e-14
Angular grids for H and He will be reduced by one unit
Partially contracted basis set               ... on
Rotationally invariant grid construction     ... off

Total number of grid points                  ...    14653
Total number of batches                      ...      232
Average number of points per batch           ...       63
Average number of grid points per atom       ...     1628
UseSFitting                                  ... on

GRIDX 3
-------
General Integration Accuracy     IntAcc      ... 4.338
Radial Grid Type                 RadialGrid  ... OptM3 with GC (2021)
Angular Grid (max. ang.)         AngularGrid ... 3 (Lebedev-194)
Angular grid pruning method      GridPruning ... 4 (adaptive)
Weight generation scheme         WeightScheme... Becke
Basis function cutoff            BFCut       ... 1.0000e-11
Integration weight cutoff        WCut        ... 1.0000e-14
Angular grids for H and He will be reduced by one unit
Partially contracted basis set               ... on
Rotationally invariant grid construction     ... off

Total number of grid points                  ...    31097
Total number of batches                      ...      489
Average number of points per batch           ...       63
Average number of grid points per atom       ...     3455
UseSFitting                                  ... on

Time for X-Grid setup             =    0.148 sec

--------------
SCF ITERATIONS
--------------
ITER       Energy         Delta-E        Max-DP      RMS-DP      [F,P]     Damp
               ***  Starting incremental Fock matrix formation  ***
  0  -5743.4393106599   0.000000000000 0.09894697  0.00290237  3.2209752 0.7000
  1  -5743.6178777881  -0.178567128178 0.07150895  0.00200136  2.2227105 0.7000
  2  -5743.6873781646  -0.069500376460 0.04403516  0.00099994  1.5358676 0.7000
  3  -5743.7264548972  -0.039076732664 0.01825685  0.00044093  1.0625554 0.7000
  4  -5743.7544351166  -0.027980219375 0.00697053  0.00022467  0.7356508 0.7000
  5  -5743.7743885078  -0.019953391240 0.00497951  0.00014124  0.5095330 0.7000
  6  -5743.7883644808  -0.013975972943 0.00321389  0.00009292  0.3530117 0.7000
  7  -5743.7981300256  -0.009765544856 0.00199709  0.00006198  0.2446276 0.7000
                               ***Turning on DIIS***
  8  -5743.8049613732  -0.006831347602 0.00126078  0.00004281  0.1695594 0.7000
  9  -5743.8097428141  -0.004781440879 0.00098758  0.00003124  0.1175547 0.7000
 10  -5743.8130898347  -0.003347020624 0.00255765  0.00007612  0.0820586 0.0000
 11  -5743.8208999358  -0.007810101024 0.00025606  0.00000559  0.0001578 0.0000
               *** Restarting incremental Fock matrix formation ***
                                   *** Resetting DIIS ***
 12  -5743.8208036776   0.000096258193 0.00028817  0.00001037  0.0000857 0.0000
 13  -5743.8208036989  -0.000000021377 0.00010172  0.00000294  0.0001238 0.0000
 14  -5743.8208037888  -0.000000089885 0.00001650  0.00000051  0.0000147 0.0000
 15  -5743.8208037871   0.000000001746 0.00000684  0.00000018  0.0000112 0.0000
 16  -5743.8208037746   0.000000012457 0.00000327  0.00000006  0.0000016 0.0000
                            ***DIIS convergence achieved***

               *****************************************************
               *                     SUCCESS                       *
               *           SCF CONVERGED AFTER  17 CYCLES          *
               *****************************************************

Old exchange energy                            =    -41.379250002 Eh
New exchange energy                            =    -41.379261731 Eh
Exchange energy change after final integration =     -0.000011729 Eh
Total energy after final integration           =  -5743.820815516 Eh
Final COS-X integration done in                =     0.201 sec

----------------
TOTAL SCF ENERGY
----------------

Total Energy       :        -5743.82081552 Eh         -156297.31039 eV

Components:
Nuclear Repulsion  :          217.94002254 Eh            5930.44951 eV
Electronic Energy  :        -5961.76083806 Eh         -162227.75990 eV
One Electron Energy:        -8317.06774271 Eh         -226318.91911 eV
Two Electron Energy:         2355.30690465 Eh           64091.15921 eV
Max COSX asymmetry :            0.00000153 Eh               0.00004 eV

Virial components:
Potential Energy   :       -11715.30761571 Eh         -318789.72718 eV
Kinetic Energy     :         5971.48680020 Eh          162492.41679 eV
Virial Ratio       :            1.96187449


DFT components:
N(Alpha)           :       32.999992727721 electrons
N(Beta)            :       32.999992727721 electrons
N(Total)           :       65.999985455443 electrons
E(X)               :     -123.718581980767 Eh       
E(C)               :       -3.110768142380 Eh       
E(XC)              :     -126.829350123147 Eh       
DFET-embed. en.    :        0.000000000000 Eh       

---------------
SCF CONVERGENCE
---------------

  Last Energy change         ...   -1.2790e-08  Tolerance :   1.0000e-08
  Last MAX-Density change    ...    0.0000e+00  Tolerance :   1.0000e-07
  Last RMS-Density change    ...    0.0000e+00  Tolerance :   5.0000e-09
  Last DIIS Error            ...    3.2945e-07  Tolerance :   5.0000e-07

             **** THE GBW FILE WAS UPDATED (me2cd_se_tzvp.gbw) ****
             **** DENSITY me2cd_se_tzvp.scfp WAS UPDATED ****
             **** ENERGY FILE WAS UPDATED (me2cd_se_tzvp.en.tmp) ****
             **** THE GBW FILE WAS UPDATED (me2cd_se_tzvp.gbw) ****
             **** DENSITY me2cd_se_tzvp.scfp WAS UPDATED ****
----------------
ORBITAL ENERGIES
----------------

  NO   OCC          E(Eh)            E(eV) 
   0   2.0000   -1008.355236    -27438.7409 
   1   2.0000    -146.912031     -3997.6796 
   2   2.0000    -131.723147     -3584.3691 
   3   2.0000    -131.723147     -3584.3690 
   4   2.0000    -131.719719     -3584.2758 
   5   2.0000     -27.644219      -752.2374 
   6   2.0000     -22.657951      -616.5542 
   7   2.0000     -22.657949      -616.5541 
   8   2.0000     -22.651115      -616.3682 
   9   2.0000     -14.875100      -404.7720 
  10   2.0000     -14.875090      -404.7718 
  11   2.0000     -14.870144      -404.6372 
  12   2.0000     -14.870143      -404.6372 
  13   2.0000     -14.868021      -404.5794 
  14   2.0000     -10.220361      -278.1102 
  15   2.0000     -10.220337      -278.1095 
  16   2.0000      -4.137730      -112.5934 
  17   2.0000      -2.655545       -72.2611 
  18   2.0000      -2.655542       -72.2610 
  19   2.0000      -2.648100       -72.0585 
  20   2.0000      -0.676008       -18.3951 
  21   2.0000      -0.666718       -18.1423 
  22   2.0000      -0.529643       -14.4123 
  23   2.0000      -0.529642       -14.4123 
  24   2.0000      -0.526768       -14.3341 
  25   2.0000      -0.526758       -14.3338 
  26   2.0000      -0.524514       -14.2728 
  27   2.0000      -0.390862       -10.6359 
  28   2.0000      -0.390541       -10.6272 
  29   2.0000      -0.384264       -10.4564 
  30   2.0000      -0.383946       -10.4477 
  31   2.0000      -0.301220        -8.1966 
  32   2.0000      -0.242646        -6.6027 
  33   0.0000      -0.002970        -0.0808 
  34   0.0000      -0.002951        -0.0803 
  35   0.0000       0.003059         0.0832 
  36   0.0000       0.082937         2.2568 
  37   0.0000       0.120010         3.2656 
  38   0.0000       0.153874         4.1871 
  39   0.0000       0.153905         4.1880 
  40   0.0000       0.166374         4.5273 
  41   0.0000       0.166410         4.5282 
  42   0.0000       0.180664         4.9161 
  43   0.0000       0.247732         6.7411 
  44   0.0000       0.254479         6.9247 
  45   0.0000       0.254548         6.9266 
  46   0.0000       0.338924         9.2226 
  47   0.0000       0.387771        10.5518 
  48   0.0000       0.387858        10.5541 
  49   0.0000       0.442401        12.0384 
  50   0.0000       0.442447        12.0396 
  51   0.0000       0.472160        12.8481 
  52   0.0000       0.539029        14.6677 
  53   0.0000       0.539561        14.6822 
  54   0.0000       0.623662        16.9707 
  55   0.0000       0.636816        17.3287 
  56   0.0000       0.637438        17.3456 
  57   0.0000       0.701450        19.0874 
  58   0.0000       0.718556        19.5529 
  59   0.0000       0.718665        19.5559 
  60   0.0000       0.730511        19.8782 
  61   0.0000       0.730599        19.8806 
  62   0.0000       0.732866        19.9423 
  63   0.0000       0.785381        21.3713 
  64   0.0000       0.830340        22.5947 
  65   0.0000       0.992549        27.0086 
  66   0.0000       1.102836        30.0097 
  67   0.0000       1.102967        30.0132 
  68   0.0000       1.157023        31.4842 
  69   0.0000       1.190322        32.3903 
  70   0.0000       1.255311        34.1587 
  71   0.0000       1.255802        34.1721 
  72   0.0000       1.304218        35.4896 
  73   0.0000       1.304751        35.5041 
  74   0.0000       1.557248        42.3749 
  75   0.0000       1.557267        42.3754 
  76   0.0000       1.739771        47.3416 
  77   0.0000       1.740450        47.3600 
  78   0.0000       1.777428        48.3663 
  79   0.0000       1.792135        48.7665 
  80   0.0000       1.792686        48.7815 
  81   0.0000       1.846900        50.2567 
  82   0.0000       1.993667        54.2504 
  83   0.0000       1.994291        54.2674 
  84   0.0000       1.997403        54.3521 
  85   0.0000       1.998021        54.3689 
  86   0.0000       2.242073        61.0099 
  87   0.0000       2.244873        61.0861 
  88   0.0000       2.251233        61.2592 
  89   0.0000       2.251267        61.2601 
  90   0.0000       2.355261        64.0899 
  91   0.0000       2.355330        64.0918 
  92   0.0000       2.473810        67.3158 
  93   0.0000       2.474619        67.3378 
  94   0.0000       2.487209        67.6804 
  95   0.0000       2.488099        67.7046 
  96   0.0000       2.530617        68.8616 
  97   0.0000       2.530632        68.8620 
  98   0.0000       2.538008        69.0627 
  99   0.0000       2.538061        69.0641 
 100   0.0000       2.553489        69.4840 
 101   0.0000       2.553527        69.4850 
 102   0.0000       2.589821        70.4726 
 103   0.0000       2.602618        70.8208 
 104   0.0000       2.754451        74.9524 
 105   0.0000       2.758432        75.0608 
 106   0.0000       2.960926        80.5709 
 107   0.0000       2.961932        80.5983 
 108   0.0000       2.966510        80.7228 
 109   0.0000       2.967508        80.7500 
 110   0.0000       3.349281        91.1386 
 111   0.0000       4.621405       125.7548 
 112   0.0000       4.621438       125.7557 
 113   0.0000       4.797894       130.5573 
 114   0.0000       9.830463       267.5005 
 115   0.0000       9.830483       267.5010 
 116   0.0000       9.900130       269.3962 
 117   0.0000       9.900201       269.3982 
 118   0.0000      10.082951       274.3710 
 119   0.0000      12.146031       330.5103 
 120   0.0000      21.052590       572.8701 
 121   0.0000      21.052616       572.8708 
 122   0.0000      21.180316       576.3457 
 123   0.0000      47.767069      1299.8080 
 124   0.0000      98.886992      2690.8518 
 125   0.0000      98.887011      2690.8524 
 126   0.0000      98.978079      2693.3304 
 127   0.0000     182.084319      4954.7662 
 128   0.0000     452.587013     12315.5187 
 129   0.0000     452.587028     12315.5191 
 130   0.0000     452.653888     12317.3385 
 131   0.0000     619.261213     16850.9543 
 132   0.0000    1886.338682     51329.8851 
 133   0.0000    5300.041242    144221.4543 
 134   0.0000   18718.074558    509344.7033 

                    ********************************
                    * MULLIKEN POPULATION ANALYSIS *
                    ********************************

-----------------------
MULLIKEN ATOMIC CHARGES
-----------------------
   0 Cd:    0.512594
   1 C :   -0.414786
   2 C :   -0.414758
   3 H :    0.052704
   4 H :    0.053034
   5 H :    0.052724
   6 H :    0.052820
   7 H :    0.052769
   8 H :    0.052900
Sum of atomic charges:    0.0000000

--------------------------------
MULLIKEN REDUCED ORBITAL CHARGES
--------------------------------
  0 Cds       :     9.105529  s :     9.105529
      pz      :     6.031344  p :    18.383237
      px      :     6.320483
      py      :     6.031410
      dz2     :     3.994694  d :    19.997990
      dxz     :     4.009586
      dyz     :     3.999969
      dx2y2   :     3.984161
      dxy     :     4.009581
      f0      :     0.000023  f :     0.000650
      f+1     :     0.000198
      f-1     :     0.000004
      f+2     :     0.000038
      f-2     :     0.000000
      f+3     :     0.000330
      f-3     :     0.000057
  1 C s       :     3.176842  s :     3.176842
      pz      :     1.012728  p :     3.221060
      px      :     1.195377
      py      :     1.012954
      dz2     :     0.003834  d :     0.016884
      dxz     :     0.003027
      dyz     :     0.004486
      dx2y2   :     0.002514
      dxy     :     0.003024
  2 C s       :     3.176804  s :     3.176804
      pz      :     1.012576  p :     3.221068
      px      :     1.195373
      py      :     1.013119
      dz2     :     0.003826  d :     0.016886
      dxz     :     0.003029
      dyz     :     0.004499
      dx2y2   :     0.002510
      dxy     :     0.003022
  3 H s       :     0.921855  s :     0.921855
      pz      :     0.009289  p :     0.025441
      px      :     0.007020
      py      :     0.009133
  4 H s       :     0.921533  s :     0.921533
      pz      :     0.012714  p :     0.025433
      px      :     0.007022
      py      :     0.005697
  5 H s       :     0.921830  s :     0.921830
      pz      :     0.005633  p :     0.025446
      px      :     0.007023
      py      :     0.012790
  6 H s       :     0.921745  s :     0.921745
      pz      :     0.009258  p :     0.025436
      px      :     0.007019
      py      :     0.009159
  7 H s       :     0.921789  s :     0.921789
      pz      :     0.005642  p :     0.025443
      px      :     0.007023
      py      :     0.012778
  8 H s       :     0.921662  s :     0.921662
      pz      :     0.012729  p :     0.025437
      px      :     0.007022
      py      :     0.005686


                     *******************************
                     * LOEWDIN POPULATION ANALYSIS *
                     *******************************

----------------------
LOEWDIN ATOMIC CHARGES
----------------------
   0 Cd:    0.288712
   1 C :   -0.240278
   2 C :   -0.240267
   3 H :    0.031957
   4 H :    0.032000
   5 H :    0.031953
   6 H :    0.031974
   7 H :    0.031965
   8 H :    0.031984

-------------------------------
LOEWDIN REDUCED ORBITAL CHARGES
-------------------------------
  0 Cds       :     9.024485  s :     9.024485
      pz      :     6.047158  p :    18.655978
      px      :     6.561571
      py      :     6.047249
      dz2     :     3.999467  d :    20.030060
      dxz     :     4.016127
      dyz     :     4.000100
      dx2y2   :     3.998211
      dxy     :     4.016155
      f0      :     0.000019  f :     0.000766
      f+1     :     0.000250
      f-1     :     0.000003
      f+2     :     0.000031
      f-2     :     0.000000
      f+3     :     0.000416
      f-3     :     0.000046
  1 C s       :     2.896342  s :     2.896342
      pz      :     1.063019  p :     3.302027
      px      :     1.175825
      py      :     1.063183
      dz2     :     0.010258  d :     0.041910
      dxz     :     0.006440
      dyz     :     0.011941
      dx2y2   :     0.006838
      dxy     :     0.006433
  2 C s       :     2.896319  s :     2.896319
      pz      :     1.062908  p :     3.302035
      px      :     1.175819
      py      :     1.063308
      dz2     :     0.010241  d :     0.041913
      dxz     :     0.006446
      dyz     :     0.011971
      dx2y2   :     0.006826
      dxy     :     0.006428
  3 H s       :     0.894843  s :     0.894843
      pz      :     0.025610  p :     0.073200
      px      :     0.022497
      py      :     0.025093
  4 H s       :     0.894811  s :     0.894811
      pz      :     0.036108  p :     0.073189
      px      :     0.022492
      py      :     0.014590
  5 H s       :     0.894841  s :     0.894841
      pz      :     0.014384  p :     0.073206
      px      :     0.022501
      py      :     0.036321
  6 H s       :     0.894834  s :     0.894834
      pz      :     0.025509  p :     0.073192
      px      :     0.022492
      py      :     0.025190
  7 H s       :     0.894838  s :     0.894838
      pz      :     0.014407  p :     0.073198
      px      :     0.022497
      py      :     0.036293
  8 H s       :     0.894824  s :     0.894824
      pz      :     0.036153  p :     0.073192
      px      :     0.022494
      py      :     0.014545


                      *****************************
                      * MAYER POPULATION ANALYSIS *
                      *****************************

  NA   - Mulliken gross atomic population
  ZA   - Total nuclear charge
  QA   - Mulliken gross atomic charge
  VA   - Mayer's total valence
  BVA  - Mayer's bonded valence
  FA   - Mayer's free valence

  ATOM       NA         ZA         QA         VA         BVA        FA
  0 Cd    47.4874    48.0000     0.5126     1.7238     1.7238    -0.0000
  1 C      6.4148     6.0000    -0.4148     3.8788     3.8788     0.0000
  2 C      6.4148     6.0000    -0.4148     3.8788     3.8788     0.0000
  3 H      0.9473     1.0000     0.0527     0.9772     0.9772    -0.0000
  4 H      0.9470     1.0000     0.0530     0.9771     0.9771    -0.0000
  5 H      0.9473     1.0000     0.0527     0.9772     0.9772     0.0000
  6 H      0.9472     1.0000     0.0528     0.9771     0.9771     0.0000
  7 H      0.9472     1.0000     0.0528     0.9772     0.9772     0.0000
  8 H      0.9471     1.0000     0.0529     0.9771     0.9771     0.0000

  Mayer bond orders larger than 0.100000
B(  0-Cd,  1-C ) :   0.8475 B(  0-Cd,  2-C ) :   0.8475 B(  1-C ,  2-C ) :   0.1151 
B(  1-C ,  6-H ) :   0.9707 B(  1-C ,  7-H ) :   0.9707 B(  1-C ,  8-H ) :   0.9707 
B(  2-C ,  3-H ) :   0.9707 B(  2-C ,  4-H ) :   0.9707 B(  2-C ,  5-H ) :   0.9707 


-------
TIMINGS
-------

Total SCF time: 0 days 0 hours 0 min 3 sec 

Total time                  ....       3.211 sec
Sum of individual times     ....       3.126 sec  ( 97.4%)

Fock matrix formation       ....       2.392 sec  ( 74.5%)
  Split-RI-J                ....       0.323 sec  ( 13.5% of F)
  Chain of spheres X        ....       1.646 sec  ( 68.8% of F)
  XC integration            ....       0.378 sec  ( 15.8% of F)
    Basis function eval.    ....       0.098 sec  ( 26.0% of XC)
    Density eval.           ....       0.058 sec  ( 15.2% of XC)
    XC-Functional eval.     ....       0.034 sec  (  8.9% of XC)
    XC-Potential eval.      ....       0.054 sec  ( 14.2% of XC)
Diagonalization             ....       0.064 sec  (  2.0%)
Density matrix formation    ....       0.004 sec  (  0.1%)
Population analysis         ....       0.004 sec  (  0.1%)
Initial guess               ....       0.017 sec  (  0.5%)
Orbital Transformation      ....       0.000 sec  (  0.0%)
Orbital Orthonormalization  ....       0.000 sec  (  0.0%)
DIIS solution               ....       0.050 sec  (  1.6%)
Grid generation             ....       0.595 sec  ( 18.5%)

Maximum memory used throughout the entire SCF-calculation: 62.8 MB

-------------------------   --------------------
FINAL SINGLE POINT ENERGY     -5743.820815516201
-------------------------   --------------------



           ************************************************************
           *        Program running with 16 parallel MPI-processes    *
           *              working on a common directory               *
           ************************************************************
------------------------------------------------------------------------------
                         ORCA SCF GRADIENT CALCULATION
------------------------------------------------------------------------------

 ... reading COSX grid (gridx3)
Gradient of the Kohn-Sham DFT energy:
Kohn-Sham wavefunction type      ... RKS
Hartree-Fock exchange scaling    ...    0.250
Number of operators              ...    1
Number of atoms                  ...    9
Basis set dimensions             ...  135
Integral neglect threshold       ... 2.5e-11
Integral primitive cutoff        ... 2.5e-12
SHARK Integral package           ... ON

Nuc. rep. gradient       (SHARK) ... done (  0.0 sec)
HCore & Overlap gradient (SHARK) ... done (  0.0 sec)
RI-J gradient            (SHARK) ... done (  0.1 sec)
COSX-gradient                    ... done (  0.2 sec)
Exchange-correlation gradient    ... done

------------------
CARTESIAN GRADIENT
------------------

   1   Cd  :    0.000000033   -0.000003733    0.000008250
   2   C   :    0.029996925   -0.000106659   -0.000007490
   3   C   :   -0.030012286   -0.000090457    0.000155521
   4   H   :    0.002088761    0.004396796    0.004181509
   5   H   :    0.002185541    0.001623538   -0.005748226
   6   H   :    0.002092254   -0.005968848    0.001357806
   7   H   :   -0.002120542    0.004277535    0.004207859
   8   H   :   -0.002095599   -0.005881586    0.001537367
   9   H   :   -0.002135604    0.001671012   -0.005786566

Difference to translation invariance:
           :   -0.0000005180   -0.0000824008   -0.0000939689

Difference to rotation invariance:
           :    0.0000064728   -0.0000047504   -0.0000028814

Norm of the cartesian gradient     ...    0.0452411861
RMS gradient                       ...    0.0087066703
MAX gradient                       ...    0.0300122860

-------
TIMINGS
-------

Total SCF gradient time            ...        0.595 sec

One electron gradient       ....       0.006 sec  (  1.0%)
RI-J Coulomb gradient       ....       0.133 sec  ( 22.3%)
COSX gradient               ....       0.246 sec  ( 41.2%)
XC gradient                 ....       0.076 sec  ( 12.8%)

Maximum memory used throughout the entire SCFGRAD-calculation: 37.6 MB
------------------------------------------------------------------------------
                         ORCA GEOMETRY RELAXATION STEP
------------------------------------------------------------------------------

Reading the OPT-File                    .... done
Getting information on internals        .... done
Copying old internal coords+grads       .... done
Making the new internal coordinates     .... (new redundants).... done
Validating the new internal coordinates .... (new redundants).... done
Calculating the B-matrix                .... done
Calculating the G,G- and P matrices     .... done
Transforming gradient to internals      .... done
Projecting the internal gradient        .... done
Number of atoms                         ....   9
Number of internal coordinates          ....  31
Current Energy                          .... -5743.820815516 Eh
Current gradient norm                   ....     0.045241186 Eh/bohr
Maximum allowed component of the step   ....  0.300
Current trust radius                    ....  0.300
Evaluating the initial hessian          ....  (Almloef) done
Projecting the Hessian                  .... done
Forming the augmented Hessian           .... done
Diagonalizing the augmented Hessian     .... done
Last element of RFO vector              ....  0.991685925
Lowest eigenvalues of augmented Hessian:
 -0.004768419  0.001500000  0.098681171  0.104719809  0.104870257
Length of the computed step             ....  0.129760720
The final length of the internal step   ....  0.129760720
Converting the step to cartesian space:
 Initial RMS(Int)=    0.0233057132
Transforming coordinates:
 Iter   0:  RMS(Cart)=    0.0454718182 RMS(Int)=    0.0233056790
 Iter   1:  RMS(Cart)=    0.0000027056 RMS(Int)=    0.0000032576
 Iter   2:  RMS(Cart)=    0.0000000315 RMS(Int)=    0.0000000349
done
Storing new coordinates                 .... done

                                .--------------------.
          ----------------------|Geometry convergence|-------------------------
          Item                value                   Tolerance       Converged
          ---------------------------------------------------------------------
          RMS gradient        0.0066341449            0.0000300000      NO
          MAX gradient        0.0236455003            0.0001000000      NO
          RMS step            0.0233057132            0.0006000000      NO
          MAX step            0.0865590345            0.0010000000      NO
          ........................................................
          Max(Bonds)      0.0458      Max(Angles)    0.06
          Max(Dihed)        0.06      Max(Improp)    0.00
          ---------------------------------------------------------------------

The optimization has not yet converged - more geometry cycles are needed


    ---------------------------------------------------------------------------
                         Redundant Internal Coordinates
                            (Angstroem and degrees)

        Definition                    Value    dE/dq     Step     New-Value
    ----------------------------------------------------------------------------
     1. B(C   1,Cd  0)                2.2500  0.023645 -0.0458    2.2042   
     2. B(C   2,Cd  0)                2.2500  0.023646 -0.0458    2.2042   
     3. B(H   3,C   2)                1.0900 -0.006426  0.0093    1.0993   
     4. B(H   4,C   2)                1.0900 -0.006353  0.0092    1.0992   
     5. B(H   5,C   2)                1.0900 -0.006460  0.0094    1.0993   
     6. B(H   6,C   1)                1.0900 -0.006376  0.0092    1.0993   
     7. B(H   7,C   1)                1.0900 -0.006424  0.0093    1.0993   
     8. B(H   8,C   1)                1.0900 -0.006383  0.0093    1.0993   
     9. L(C   1,Cd  0,C   2,H   6, 2) 180.00 -0.000014    0.00    180.00   
    10. L(C   1,Cd  0,C   2,H   6, 1) 180.00  0.000001   -0.00    180.00   
    11. A(Cd  0,C   1,H   7)          109.50  0.000053   -0.00    109.49   
    12. A(H   7,C   1,H   8)          109.42 -0.000053    0.02    109.44   
    13. A(Cd  0,C   1,H   8)          109.50 -0.000013   -0.00    109.50   
    14. A(H   6,C   1,H   7)          109.41 -0.000053    0.01    109.42   
    15. A(Cd  0,C   1,H   6)          109.50  0.000015   -0.01    109.49   
    16. A(H   6,C   1,H   8)          109.51  0.000050   -0.02    109.48   
    17. A(H   3,C   2,H   5)          109.29 -0.000176    0.06    109.35   
    18. A(Cd  0,C   2,H   5)          109.50  0.000072   -0.00    109.49   
    19. A(Cd  0,C   2,H   3)          109.50  0.000073   -0.01    109.49   
    20. A(H   3,C   2,H   4)          109.53  0.000077   -0.03    109.50   
    21. A(H   4,C   2,H   5)          109.51  0.000039   -0.02    109.49   
    22. A(Cd  0,C   2,H   4)          109.50 -0.000085    0.00    109.50   
    23. D(H   3,C   2,C   1,H   7)    119.72 -0.000065    0.04    119.75   
    24. D(H   3,C   2,C   1,H   8)   -120.32 -0.000106    0.06   -120.26   
    25. D(H   4,C   2,C   1,H   6)    119.87  0.000044   -0.02    119.85   
    26. D(H   4,C   2,C   1,H   7)   -120.18  0.000022   -0.01   -120.19   
    27. D(H   4,C   2,C   1,H   8)     -0.21 -0.000019    0.01     -0.20   
    28. D(H   5,C   2,C   1,H   6)   -120.05  0.000084   -0.04   -120.10   
    29. D(H   5,C   2,C   1,H   7)     -0.10  0.000061   -0.03     -0.13   
    30. D(H   5,C   2,C   1,H   8)    119.87  0.000020   -0.01    119.86   
    31. D(H   3,C   2,C   1,H   6)     -0.24 -0.000043    0.02     -0.22   
    ----------------------------------------------------------------------------

         *************************************************************
         *                GEOMETRY OPTIMIZATION CYCLE   2            *
         *************************************************************
---------------------------------
CARTESIAN COORDINATES (ANGSTROEM)
---------------------------------
  Cd     0.000001    0.000105   -0.000084
  C      2.204196    0.000106   -0.000010
  C     -2.204194    0.000097   -0.000166
  H     -2.570918   -0.725288   -0.740308
  H     -2.571136   -0.277060    0.998241
  H     -2.571044    1.003201   -0.260390
  H      2.570987   -0.728042   -0.737342
  H      2.571061    1.002609   -0.262472
  H      2.571048   -0.273627    0.999431

----------------------------
CARTESIAN COORDINATES (A.U.)
----------------------------
  NO LB      ZA    FRAG     MASS         X           Y           Z
   0 Cd   48.0000    0   112.410    0.000002    0.000198   -0.000159
   1 C     6.0000    0    12.011    4.165327    0.000200   -0.000018
   2 C     6.0000    0    12.011   -4.165322    0.000183   -0.000314
   3 H     1.0000    0     1.008   -4.858331   -1.370596   -1.398980
   4 H     1.0000    0     1.008   -4.858744   -0.523567    1.886402
   5 H     1.0000    0     1.008   -4.858570    1.895774   -0.492065
   6 H     1.0000    0     1.008    4.858461   -1.375799   -1.393375
   7 H     1.0000    0     1.008    4.858600    1.894656   -0.496001
   8 H     1.0000    0     1.008    4.858576   -0.517080    1.888651

--------------------------------
INTERNAL COORDINATES (ANGSTROEM)
--------------------------------
 Cd     0   0   0     0.000000000000     0.00000000     0.00000000
 C      1   0   0     2.204195106320     0.00000000     0.00000000
 C      1   2   0     2.204194931758   179.99973496     0.00000000
 H      3   1   2     1.099309195721   109.48880927     3.67598924
 H      3   1   2     1.099217536969   109.49890861   123.73811544
 H      3   1   2     1.099323801456   109.49420182   243.79470085
 H      2   1   3     1.099269310656   109.49013034   356.10714052
 H      2   1   3     1.099312458196   109.49434878   116.07573219
 H      2   1   3     1.099268801452   109.49677052   236.06461584

---------------------------
INTERNAL COORDINATES (A.U.)
---------------------------
 Cd     0   0   0     0.000000000000     0.00000000     0.00000000
 C      1   0   0     4.165325096675     0.00000000     0.00000000
 C      1   2   0     4.165324766800   179.99973496     0.00000000
 H      3   1   2     2.077393316414   109.48880927     3.67598924
 H      3   1   2     2.077220106476   109.49890861   123.73811544
 H      3   1   2     2.077420917254   109.49420182   243.79470085
 H      2   1   3     2.077317944565   109.49013034   356.10714052
 H      2   1   3     2.077399481599   109.49434878   116.07573219
 H      2   1   3     2.077316982307   109.49677052   236.06461584



           ************************************************************
           *        Program running with 16 parallel MPI-processes    *
           *              working on a common directory               *
           ************************************************************
------------------------------------------------------------------------------
                   ___                                                        
                  /   \      - P O W E R E D   B Y -                         
                 /     \                                                     
                 |  |  |   _    _      __       _____    __    __             
                 |  |  |  | |  | |    /  \     |  _  \  |  |  /  |          
                  \  \/   | |  | |   /    \    | | | |  |  | /  /          
                 / \  \   | |__| |  /  /\  \   | |_| |  |  |/  /          
                |  |  |   |  __  | /  /__\  \  |    /   |      \           
                |  |  |   | |  | | |   __   |  |    \   |  |\   \          
                \     /   | |  | | |  |  |  |  | |\  \  |  | \   \       
                 \___/    |_|  |_| |__|  |__|  |_| \__\ |__|  \__/        
                                                                              
                      - O R C A' S   B I G   F R I E N D -                    
                                      &                                       
                       - I N T E G R A L  F E E D E R -                       
                                                                              
 v1 FN, 2020, v2 2021                                                         
------------------------------------------------------------------------------


Reading SHARK input file me2cd_se_tzvp.SHARKINP.tmp ... ok
----------------------
SHARK INTEGRAL PACKAGE
----------------------

Number of atoms                             ...      9
Number of basis functions                   ...    135
Number of shells                            ...     61
Maximum angular momentum                    ...      3
Integral batch strategy                     ... SHARK/LIBINT Hybrid
RI-J (if used) integral strategy            ... SPLIT-RIJ (Revised 2003 algorithm where possible)
Printlevel                                  ...      1
Contraction scheme used                     ... SEGMENTED contraction
Coulomb Range Separation                    ... NOT USED
Exchange Range Separation                   ... NOT USED
Finite Nucleus Model                        ... NOT USED
Auxiliary Coulomb fitting basis             ... AVAILABLE
   # of basis functions in Aux-J            ...    368
   # of shells in Aux-J                     ...    140
   Maximum angular momentum in Aux-J        ...      4
Auxiliary J/K fitting basis                 ... NOT available
Auxiliary Correlation fitting basis         ... NOT available
Auxiliary 'external' fitting basis          ... NOT available
Integral threshold                          ...     2.500000e-11
Primitive cut-off                           ...     2.500000e-12
Primitive pair pre-selection threshold      ...     2.500000e-12

Calculating pre-screening integrals         ... done (  0.0 sec) Dimension = 61
Organizing shell pair data                  ... done (  0.0 sec)
Shell pair information
Total number of shell pairs                 ...      1891
Shell pairs after pre-screening             ...      1813
Total number of primitive shell pairs       ...      5248
Primitive shell pairs kept                  ...      3952
          la=0 lb=0:    534 shell pairs
          la=1 lb=0:    630 shell pairs
          la=1 lb=1:    201 shell pairs
          la=2 lb=0:    225 shell pairs
          la=2 lb=1:    134 shell pairs
          la=2 lb=2:     28 shell pairs
          la=3 lb=0:     33 shell pairs
          la=3 lb=1:     20 shell pairs
          la=3 lb=2:      7 shell pairs
          la=3 lb=3:      1 shell pairs

Calculating one electron integrals          ... done (  0.0 sec)
Calculating RI/J V-Matrix + Cholesky decomp.... done (  0.0 sec)
Calculating Nuclear repulsion               ... done (  0.0 sec) ENN=    221.474253831891 Eh

SHARK setup successfully completed in   0.1 seconds

Maximum memory used throughout the entire GTOINT-calculation: 18.9 MB


           ************************************************************
           *        Program running with 16 parallel MPI-processes    *
           *              working on a common directory               *
           ************************************************************
------------------------------------------------------------------------------
                          ORCA RELATIVISTIC HAMILTONIAN
------------------------------------------------------------------------------

Relativistic Method            ... ZORA(MP)
Treatment of potential         ... Van Wuellen
Nucleus model                  ... Point Nucleus
Speed of light used            ... 137.03598950000000


            *************************************************
            *         ZERO ORDER REGULAR APPROXIMATION      *
            *                     ZORA(MP)                  *
            *            Programmed by FN according to      *
            *                   C. van Wuellen              *
            *       J. Chem. Phys. (1998) vol 109, 392-399  *
            *************************************************

Terms included in model potential: +V(e,N)+V(C)+V(Xa)+V(VWN-V)
Basis function cutoff value   ... 1.000000e-11
Loading the fitted atomic densities (ZORA)   ... done
Calculating the cutoffs                      ... done
Number of fit functions                      ... 81
One center approximation for ZORA is active
Finding unique atoms                  ... 3 atom types
AtomType   0 (Cd) Member=  0 NMembers=   1, NRad=2000 NumBF= 77
             ... doing numerical integration
             ... adding submatrices to 1 actual atoms
AtomType   1 (C ) Member=  1 NMembers=   2, NRad=2000 NumBF= 14
             ... doing numerical integration
             ... adding submatrices to 2 actual atoms
AtomType   2 (H ) Member=  3 NMembers=   6, NRad=2000 NumBF=  5
             ... doing numerical integration
             ... adding submatrices to 6 actual atoms
             ... done with one-center part

Maximum memory used throughout the entire REL-calculation: 0.9 MB


           ************************************************************
           *        Program running with 16 parallel MPI-processes    *
           *              working on a common directory               *
           ************************************************************

Diagonalization of the overlap matrix:
Smallest eigenvalue                        ... 6.914e-04
Time for diagonalization                   ...    0.002 sec
Threshold for overlap eigenvalues          ... 1.000e-08
Number of eigenvalues below threshold      ... 0
Time for construction of square roots      ...    0.001 sec
Total time needed                          ...    0.004 sec

-------------------
DFT GRID GENERATION
-------------------

General Integration Accuracy     IntAcc      ... 4.388
Radial Grid Type                 RadialGrid  ... OptM3 with GC (2021)
Angular Grid (max. ang.)         AngularGrid ... 4 (Lebedev-302)
Angular grid pruning method      GridPruning ... 4 (adaptive)
Weight generation scheme         WeightScheme... Becke
Basis function cutoff            BFCut       ... 1.0000e-11
Integration weight cutoff        WCut        ... 1.0000e-14
Angular grids for H and He will be reduced by one unit
Partially contracted basis set               ... off
Rotationally invariant grid construction     ... off

Total number of grid points                  ...    58147
Total number of batches                      ...      913
Average number of points per batch           ...       63
Average number of grid points per atom       ...     6461
Time for grid setup =    0.399 sec

--------------------
COSX GRID GENERATION
--------------------

GRIDX 1
-------
General Integration Accuracy     IntAcc      ... 3.816
Radial Grid Type                 RadialGrid  ... OptM3 with GC (2021)
Angular Grid (max. ang.)         AngularGrid ... 1 (Lebedev-50)
Angular grid pruning method      GridPruning ... 4 (adaptive)
Weight generation scheme         WeightScheme... Becke
Basis function cutoff            BFCut       ... 1.0000e-11
Integration weight cutoff        WCut        ... 1.0000e-14
Angular grids for H and He will be reduced by one unit
Partially contracted basis set               ... on
Rotationally invariant grid construction     ... off

Total number of grid points                  ...     6857
Total number of batches                      ...      110
Average number of points per batch           ...       62
Average number of grid points per atom       ...      762
UseSFitting                                  ... on

GRIDX 2
-------
General Integration Accuracy     IntAcc      ... 4.020
Radial Grid Type                 RadialGrid  ... OptM3 with GC (2021)
Angular Grid (max. ang.)         AngularGrid ... 2 (Lebedev-110)
Angular grid pruning method      GridPruning ... 4 (adaptive)
Weight generation scheme         WeightScheme... Becke
Basis function cutoff            BFCut       ... 1.0000e-11
Integration weight cutoff        WCut        ... 1.0000e-14
Angular grids for H and He will be reduced by one unit
Partially contracted basis set               ... on
Rotationally invariant grid construction     ... off

Total number of grid points                  ...    14648
Total number of batches                      ...      234
Average number of points per batch           ...       62
Average number of grid points per atom       ...     1628
UseSFitting                                  ... on

GRIDX 3
-------
General Integration Accuracy     IntAcc      ... 4.338
Radial Grid Type                 RadialGrid  ... OptM3 with GC (2021)
Angular Grid (max. ang.)         AngularGrid ... 3 (Lebedev-194)
Angular grid pruning method      GridPruning ... 4 (adaptive)
Weight generation scheme         WeightScheme... Becke
Basis function cutoff            BFCut       ... 1.0000e-11
Integration weight cutoff        WCut        ... 1.0000e-14
Angular grids for H and He will be reduced by one unit
Partially contracted basis set               ... on
Rotationally invariant grid construction     ... off

Total number of grid points                  ...    31077
Total number of batches                      ...      488
Average number of points per batch           ...       63
Average number of grid points per atom       ...     3453
UseSFitting                                  ... on

Time for X-Grid setup             =    0.147 sec

--------------
SCF ITERATIONS
--------------
ITER       Energy         Delta-E        Max-DP      RMS-DP      [F,P]     Damp
               ***  Starting incremental Fock matrix formation  ***
  0  -5743.8243802965   0.000000000000 0.00146165  0.00006571  0.0102342 0.7000
  1  -5743.8244709069  -0.000090610376 0.00146263  0.00006145  0.0071502 0.7000
                               ***Turning on DIIS***
  2  -5743.8245387096  -0.000067802654 0.00385185  0.00016350  0.0050030 0.0000
  3  -5743.8247038281  -0.000165118558 0.00191009  0.00004921  0.0009143 0.0000
               *** Restarting incremental Fock matrix formation ***
                                   *** Resetting DIIS ***
  4  -5743.8247037740   0.000000054149 0.00149246  0.00002957  0.0009452 0.0000
  5  -5743.8247018130   0.000001960952 0.00072762  0.00001346  0.0012553 0.0000
  6  -5743.8247055971  -0.000003784063 0.00040085  0.00000628  0.0002629 0.0000
  7  -5743.8247057002  -0.000000103114 0.00006595  0.00000136  0.0000374 0.0000
  8  -5743.8247057335  -0.000000033321 0.00001546  0.00000044  0.0000155 0.0000
  9  -5743.8247057199   0.000000013587 0.00000570  0.00000013  0.0000038 0.0000
                            ***DIIS convergence achieved***

               *****************************************************
               *                     SUCCESS                       *
               *           SCF CONVERGED AFTER  10 CYCLES          *
               *****************************************************

Old exchange energy                            =    -41.377610966 Eh
New exchange energy                            =    -41.377625274 Eh
Exchange energy change after final integration =     -0.000014308 Eh
Total energy after final integration           =  -5743.824720014 Eh
Final COS-X integration done in                =     0.203 sec
Total Energy       :        -5743.82472001 Eh         -156297.41664 eV
  Last Energy change         ...    1.4879e-08  Tolerance :   1.0000e-08
  Last MAX-Density change    ...    0.0000e+00  Tolerance :   1.0000e-07
             **** THE GBW FILE WAS UPDATED (me2cd_se_tzvp.gbw) ****
             **** DENSITY me2cd_se_tzvp.scfp WAS UPDATED ****
             **** ENERGY FILE WAS UPDATED (me2cd_se_tzvp.en.tmp) ****
             **** THE GBW FILE WAS UPDATED (me2cd_se_tzvp.gbw) ****
             **** DENSITY me2cd_se_tzvp.scfp WAS UPDATED ****
Total SCF time: 0 days 0 hours 0 min 2 sec 

Maximum memory used throughout the entire SCF-calculation: 62.8 MB

-------------------------   --------------------
FINAL SINGLE POINT ENERGY     -5743.824720013516
-------------------------   --------------------



           ************************************************************
           *        Program running with 16 parallel MPI-processes    *
           *              working on a common directory               *
           ************************************************************
------------------------------------------------------------------------------
[...]

-----------------------
VIBRATIONAL FREQUENCIES
-----------------------

Scaling factor for frequencies =  1.000000000  (already applied!)

   0:         0.00 cm**-1
   1:         0.00 cm**-1
   2:         0.00 cm**-1
   3:         0.00 cm**-1
   4:         0.00 cm**-1
   5:         0.00 cm**-1
   6:        12.96 cm**-1
   7:       129.87 cm**-1
   8:       130.01 cm**-1
   9:       479.14 cm**-1
  10:       544.73 cm**-1
  11:       640.36 cm**-1
  12:       640.62 cm**-1
  13:       718.20 cm**-1
  14:       718.36 cm**-1
  15:      1184.63 cm**-1
  16:      1185.78 cm**-1
  17:      1428.67 cm**-1
  18:      1428.97 cm**-1
  19:      1433.16 cm**-1
  20:      1433.48 cm**-1
  21:      3050.63 cm**-1
  22:      3051.88 cm**-1
  23:      3157.67 cm**-1
  24:      3157.81 cm**-1
  25:      3158.26 cm**-1
  26:      3158.40 cm**-1


------------
NORMAL MODES
------------

These modes are the Cartesian displacements weighted by the diagonal matrix
M(i,i)=1/sqrt(m[i]) where m[i] is the mass of the displaced atom
Thus, these vectors are normalized but *not* orthogonal

                  0          1          2          3          4          5    
      0       0.000000   0.000000   0.000000   0.000000   0.000000   0.000000
      1       0.000000   0.000000   0.000000   0.000000   0.000000   0.000000
      2       0.000000   0.000000   0.000000   0.000000   0.000000   0.000000
      3       0.000000   0.000000   0.000000   0.000000   0.000000   0.000000
      4       0.000000   0.000000   0.000000   0.000000   0.000000   0.000000
      5       0.000000   0.000000   0.000000   0.000000   0.000000   0.000000
      6       0.000000   0.000000   0.000000   0.000000   0.000000   0.000000
      7       0.000000   0.000000   0.000000   0.000000   0.000000   0.000000
      8       0.000000   0.000000   0.000000   0.000000   0.000000   0.000000
      9       0.000000   0.000000   0.000000   0.000000   0.000000   0.000000
     10       0.000000   0.000000   0.000000   0.000000   0.000000   0.000000
     11       0.000000   0.000000   0.000000   0.000000   0.000000   0.000000
     12       0.000000   0.000000   0.000000   0.000000   0.000000   0.000000
     13       0.000000   0.000000   0.000000   0.000000   0.000000   0.000000
     14       0.000000   0.000000   0.000000   0.000000   0.000000   0.000000
     15       0.000000   0.000000   0.000000   0.000000   0.000000   0.000000
     16       0.000000   0.000000   0.000000   0.000000   0.000000   0.000000
     17       0.000000   0.000000   0.000000   0.000000   0.000000   0.000000
     18       0.000000   0.000000   0.000000   0.000000   0.000000   0.000000
     19       0.000000   0.000000   0.000000   0.000000   0.000000   0.000000
     20       0.000000   0.000000   0.000000   0.000000   0.000000   0.000000
     21       0.000000   0.000000   0.000000   0.000000   0.000000   0.000000
     22       0.000000   0.000000   0.000000   0.000000   0.000000   0.000000
     23       0.000000   0.000000   0.000000   0.000000   0.000000   0.000000
     24       0.000000   0.000000   0.000000   0.000000   0.000000   0.000000
     25       0.000000   0.000000   0.000000   0.000000   0.000000   0.000000
     26       0.000000   0.000000   0.000000   0.000000   0.000000   0.000000
                  6          7          8          9         10         11    
      0      -0.000000  -0.000005  -0.000006  -0.000000  -0.090677   0.000000
      1      -0.000003  -0.049191   0.052149  -0.000008  -0.000000   0.000001
      2       0.000001   0.052138   0.049201  -0.000006  -0.000010   0.000000
      3       0.000002   0.000016   0.000045   0.360883   0.334227   0.000007
      4       0.000010   0.170964  -0.181253   0.000035   0.000053   0.054764
      5      -0.000001  -0.181206  -0.171010   0.000065   0.000081  -0.057945
      6       0.000002   0.000021  -0.000006  -0.360883   0.334228  -0.000008
      7       0.000013   0.170964  -0.181254   0.000031  -0.000049  -0.054773
      8      -0.000003  -0.181205  -0.171010  -0.000015  -0.000008   0.057939
      9       0.000038   0.008930   0.234821  -0.350906   0.357616   0.019408
     10       0.291162   0.236269  -0.248546  -0.003567  -0.003130   0.128997
     11      -0.286088  -0.250282  -0.234407  -0.003659  -0.003143  -0.133560
     12       0.000033  -0.207861  -0.109693  -0.351101   0.357925  -0.465365
     13      -0.393399   0.235188  -0.250464  -0.001342  -0.001177   0.114849
     14      -0.109174  -0.248323  -0.235044   0.004864   0.004352  -0.089149
     15      -0.000072   0.199033  -0.125083  -0.351111   0.357941   0.445991
     16       0.102303   0.234209  -0.248987   0.004929   0.004325   0.083371
     17       0.395260  -0.249343  -0.236259  -0.001291  -0.001087  -0.123435
     18      -0.000013  -0.008253  -0.234790   0.350901   0.357615   0.018048
     19      -0.290373   0.236330  -0.248592  -0.003569   0.003144  -0.128893
     20       0.286849  -0.250353  -0.234420  -0.003580   0.003212   0.133680
     21      -0.000002  -0.199309   0.124618   0.351106   0.357941   0.446663
     22      -0.103307   0.234232  -0.249010   0.004930  -0.004319  -0.083319
     23      -0.394996  -0.249296  -0.236298  -0.001232   0.001176   0.123421
     24       0.000018   0.207622   0.110293   0.351111   0.357926  -0.464749
     25       0.393718   0.235105  -0.250396  -0.001325   0.001170  -0.114963
     26       0.108134  -0.248296  -0.234993   0.004940  -0.004276   0.089072
                 12         13         14         15         16         17    
      0       0.000010  -0.000001  -0.000001  -0.000000  -0.001198  -0.000001
      1      -0.000001  -0.008763   0.009299  -0.000001  -0.000000   0.000001
      2       0.000001   0.009305   0.008757  -0.000001  -0.000000  -0.000001
      3      -0.000050   0.000007   0.000046   0.090467   0.098808   0.000000
      4       0.057960   0.066787  -0.070916   0.000009   0.000008   0.034259
      5       0.054773  -0.070932  -0.066778   0.000018   0.000017   0.033354
      6      -0.000036   0.000008  -0.000030  -0.090449   0.098825   0.000009
      7      -0.057946   0.066797  -0.070912   0.000009  -0.000007  -0.034200
      8      -0.054785  -0.070920  -0.066785  -0.000004   0.000006  -0.033409
      9      -0.526129  -0.020464  -0.528616   0.371727  -0.370323   0.212976
     10       0.097241  -0.128039   0.085456  -0.112555   0.113799  -0.073380
     11       0.089119   0.132023   0.076717  -0.114492   0.115758  -0.089851
     12       0.246255   0.468059   0.246577   0.371589  -0.370188  -0.102719
     13       0.141770  -0.109895   0.142747  -0.042921   0.043385   0.456024
     14       0.103409   0.074906   0.095185   0.154777  -0.156489   0.068577
     15       0.279803  -0.447624   0.282025   0.371648  -0.370250  -0.110307
     16       0.107290  -0.069331   0.098279   0.155430  -0.157151   0.053989
     17       0.134865   0.119302   0.135578  -0.040151   0.040584   0.447842
     18      -0.526163   0.019148   0.528640  -0.371764  -0.370220   0.212975
     19      -0.097170  -0.127902   0.085335  -0.112881  -0.114086   0.073945
     20      -0.089316   0.132188   0.076956  -0.114304  -0.115524   0.089403
     21       0.278744   0.448294  -0.280925  -0.371704  -0.370165  -0.110063
     22      -0.107439  -0.069261   0.098460   0.155352   0.157014  -0.055310
     23      -0.134829   0.119262   0.135554  -0.040660  -0.041077  -0.447966
     24       0.247425  -0.467479  -0.247772  -0.371701  -0.370164  -0.102853
     25      -0.141749  -0.110047   0.142710  -0.042524  -0.042969  -0.456054
     26      -0.103196   0.074849   0.094931   0.154826   0.156482  -0.067269
                 18         19         20         21         22         23    
      0      -0.000000   0.000000  -0.000000   0.000179  -0.000000   0.000000
      1       0.000001  -0.000810  -0.000790   0.000000   0.000000   0.000000
      2       0.000001  -0.000792   0.000808   0.000000   0.000000   0.000000
      3      -0.000002  -0.000003  -0.000002  -0.034261  -0.034059   0.000023
      4      -0.033347  -0.032510  -0.031745  -0.000028  -0.000028  -0.047143
      5       0.034277  -0.031718   0.032512  -0.000024  -0.000024  -0.044704
      6       0.000006   0.000011  -0.000006  -0.034244   0.034076   0.000011
      7       0.033432  -0.032428  -0.031803   0.000029  -0.000029   0.048090
      8      -0.034200  -0.031807   0.032449   0.000013  -0.000012   0.044743
      9       0.004187   0.220975  -0.004113   0.132535  -0.133405  -0.208918
     10      -0.374347  -0.074657   0.371837   0.270003  -0.269961  -0.376873
     11       0.364614  -0.089623  -0.362314   0.274787  -0.274745  -0.384451
     12      -0.186473  -0.106915   0.193330   0.132805  -0.133668   0.096318
     13      -0.215914   0.452923   0.214733   0.103010  -0.102997   0.078084
     14      -0.164970   0.067163   0.165218  -0.371492   0.371408  -0.235698
     15       0.182223  -0.114089  -0.189157   0.132750  -0.133613   0.112450
     16       0.163435   0.053241  -0.163525  -0.373363   0.373282  -0.277616
     17       0.236933   0.445656  -0.234595   0.096551  -0.096538   0.083839
     18       0.004280  -0.220936   0.003995   0.132665   0.133401  -0.206846
     19       0.373349  -0.074919   0.370850  -0.270850  -0.270534   0.374069
     20      -0.365571  -0.089441  -0.363399  -0.274172  -0.273853   0.379301
     21       0.182261   0.113928   0.189336   0.132836   0.133565   0.109138
     22      -0.164034   0.054426  -0.164111   0.373283   0.372824   0.269074
     23      -0.236387   0.445524  -0.233762  -0.097546  -0.097434  -0.082324
     24      -0.186503   0.106929  -0.193291   0.132791   0.133519   0.097415
     25       0.216379   0.453045   0.215569  -0.102092  -0.101976  -0.078053
     26       0.164351   0.065975   0.164675   0.372011   0.371551   0.238861
                 24         25         26    
      0       0.000000   0.000000  -0.000000
      1       0.000028   0.000000   0.000026
      2       0.000026  -0.000000  -0.000028
      3      -0.000022   0.000001   0.000001
      4       0.047647   0.045559   0.044709
      5       0.045550  -0.047663  -0.047139
      6       0.000009  -0.000012   0.000013
      7       0.047904  -0.043906   0.045078
      8       0.044232   0.047569  -0.048435
      9      -0.206003  -0.010019   0.009327
     10      -0.372808  -0.027822   0.026795
     11      -0.380380  -0.008877   0.007463
     12       0.094283   0.183295  -0.185752
     13       0.076815   0.120254  -0.122188
     14      -0.231474  -0.456607   0.464271
     15       0.111580  -0.173130   0.176274
     16      -0.276390   0.433850  -0.443194
     17       0.083374  -0.104677   0.106980
     18       0.208538  -0.006024  -0.006677
     19      -0.378418   0.020775   0.021838
     20      -0.383629   0.001270   0.002702
     21      -0.109288  -0.178584  -0.174423
     22      -0.270330  -0.447128  -0.438166
     23       0.082827   0.109420   0.107145
     24      -0.098964   0.184598   0.181091
     25       0.079446  -0.119676  -0.117834
     26      -0.243477   0.460594   0.453344


-----------
IR SPECTRUM
-----------

 Mode   freq       eps      Int      T**2         TX        TY        TZ
       cm**-1   L/(mol*cm) km/mol    a.u.
----------------------------------------------------------------------------
  6:     12.96   0.000000    0.00  0.000000  (-0.000005 -0.000005 -0.000000)
  7:    129.87   0.000378    1.91  0.000908  (-0.000003 -0.020677  0.021924)
  8:    130.01   0.000385    1.95  0.000924  (-0.000002  0.022109  0.020873)
  9:    479.14   0.000000    0.00  0.000000  (-0.000000 -0.000005 -0.000004)
 10:    544.73   0.009644   48.74  0.005525  (-0.074329 -0.000000 -0.000008)
 11:    640.36   0.000000    0.00  0.000000  ( 0.000002  0.000004  0.000002)
 12:    640.62   0.000000    0.00  0.000000  (-0.000011 -0.000006  0.000005)
 13:    718.20   0.014132   71.42  0.006140  (-0.000007 -0.053725  0.057044)
 14:    718.36   0.014087   71.19  0.006119  (-0.000007  0.056952  0.053627)
 15:   1184.63   0.000000    0.00  0.000000  (-0.000000  0.000010  0.000017)
 16:   1185.78   0.000000    0.00  0.000000  ( 0.000020  0.000000 -0.000001)
 17:   1428.67   0.000000    0.00  0.000000  (-0.000047 -0.000003  0.000003)
 18:   1428.97   0.000000    0.00  0.000000  (-0.000004 -0.000007 -0.000007)
 19:   1433.16   0.000255    1.29  0.000055  (-0.000001  0.005330  0.005201)
 20:   1433.48   0.000257    1.30  0.000056  ( 0.000001  0.005236 -0.005348)
 21:   3050.63   0.005960   30.12  0.000610  (-0.024691 -0.000001 -0.000003)
 22:   3051.88   0.000000    0.00  0.000000  ( 0.000006 -0.000040 -0.000043)
 23:   3157.67   0.000000    0.00  0.000000  ( 0.000048  0.000116  0.000005)
 24:   3157.81   0.002613   13.21  0.000258  (-0.000002  0.011709  0.011008)
 25:   3158.26   0.000000    0.00  0.000000  ( 0.000001  0.000201 -0.000011)
 26:   3158.40   0.002563   12.95  0.000253  ( 0.000001  0.010896 -0.011599)

* The epsilon (eps) is given for a Dirac delta lineshape.
** The dipole moment derivative (T) already includes vibrational overlap.

The first frequency considered to be a vibration is 6
The total number of vibrations considered is 21


--------------------------
THERMOCHEMISTRY AT 298.15K
--------------------------

Temperature         ... 298.15 K
Pressure            ... 1.00 atm
Total Mass          ... 142.48 AMU

Throughout the following assumptions are being made:
  (1) The electronic state is orbitally nondegenerate
  (2) There are no thermally accessible electronically excited states
  (3) Hindered rotations indicated by low frequency modes are not
      treated as such but are treated as vibrations and this may
      cause some error
  (4) All equations used are the standard statistical mechanics
      equations for an ideal gas
  (5) All vibrations are strictly harmonic

freq.      12.96  E(vib)   ...       0.57 
freq.     129.87  E(vib)   ...       0.43 
freq.     130.01  E(vib)   ...       0.43 
freq.     479.14  E(vib)   ...       0.15 
freq.     544.73  E(vib)   ...       0.12 
freq.     640.36  E(vib)   ...       0.09 
freq.     640.62  E(vib)   ...       0.09 
freq.     718.20  E(vib)   ...       0.07 
freq.     718.36  E(vib)   ...       0.07 
freq.    1184.63  E(vib)   ...       0.01 
freq.    1185.78  E(vib)   ...       0.01 
freq.    1428.67  E(vib)   ...       0.00 
freq.    1428.97  E(vib)   ...       0.00 
freq.    1433.16  E(vib)   ...       0.00 
freq.    1433.48  E(vib)   ...       0.00 
freq.    3050.63  E(vib)   ...       0.00 
freq.    3051.88  E(vib)   ...       0.00 
freq.    3157.67  E(vib)   ...       0.00 
freq.    3157.81  E(vib)   ...       0.00 
freq.    3158.26  E(vib)   ...       0.00 
freq.    3158.40  E(vib)   ...       0.00 

------------
INNER ENERGY
------------

The inner energy is: U= E(el) + E(ZPE) + E(vib) + E(rot) + E(trans)
    E(el)   - is the total energy from the electronic structure calculation
              = E(kin-el) + E(nuc-el) + E(el-el) + E(nuc-nuc)
    E(ZPE)  - the the zero temperature vibrational energy from the frequency calculation
    E(vib)  - the the finite temperature correction to E(ZPE) due to population
              of excited vibrational states
    E(rot)  - is the rotational thermal energy
    E(trans)- is the translational thermal energy

Summary of contributions to the inner energy U:
Electronic energy                ...  -5743.82813914 Eh
Zero point energy                ...      0.07026689 Eh      44.09 kcal/mol
Thermal vibrational correction   ...      0.00325676 Eh       2.04 kcal/mol
Thermal rotational correction    ...      0.00141627 Eh       0.89 kcal/mol
Thermal translational correction ...      0.00141627 Eh       0.89 kcal/mol
-----------------------------------------------------------------------
Total thermal energy                  -5743.75178294 Eh


Summary of corrections to the electronic energy:
(perhaps to be used in another calculation)
Total thermal correction                  0.00608931 Eh       3.82 kcal/mol
Non-thermal (ZPE) correction              0.07026689 Eh      44.09 kcal/mol
-----------------------------------------------------------------------
Total correction                          0.07635619 Eh      47.91 kcal/mol


--------
ENTHALPY
--------

The enthalpy is H = U + kB*T
                kB is Boltzmann's constant
Total free energy                 ...  -5743.75178294 Eh 
Thermal Enthalpy correction       ...      0.00094421 Eh       0.59 kcal/mol
-----------------------------------------------------------------------
Total Enthalpy                    ...  -5743.75083873 Eh


Note: Rotational entropy computed according to Herzberg 
Infrared and Raman Spectra, Chapter V,1, Van Nostrand Reinhold, 1945 
Point Group:  C2, Symmetry Number:   2  
Rotational constants in cm-1:     2.641425     0.113619     0.113618 

Vibrational entropy computed according to the QRRHO of S. Grimme
Chem.Eur.J. 2012 18 9955


-------
ENTROPY
-------

The entropy contributions are T*S = T*(S(el)+S(vib)+S(rot)+S(trans))
     S(el)   - electronic entropy
     S(vib)  - vibrational entropy
     S(rot)  - rotational entropy
     S(trans)- translational entropy
The entropies will be listed as multiplied by the temperature to get
units of energy

Electronic entropy                ...      0.00000000 Eh      0.00 kcal/mol
Vibrational entropy               ...      0.00634748 Eh      3.98 kcal/mol
Rotational entropy                ...      0.01045131 Eh      6.56 kcal/mol
Translational entropy             ...      0.01937265 Eh     12.16 kcal/mol
-----------------------------------------------------------------------
Final entropy term                ...      0.03617143 Eh     22.70 kcal/mol

In case the symmetry of your molecule has not been determined correctly
or in case you have a reason to use a different symmetry number we print 
out the resulting rotational entropy values for sn=1,12 :
 --------------------------------------------------------
|  sn= 1 | S(rot)=       0.01110576 Eh      6.97 kcal/mol|
|  sn= 2 | S(rot)=       0.01045131 Eh      6.56 kcal/mol|
|  sn= 3 | S(rot)=       0.01006848 Eh      6.32 kcal/mol|
|  sn= 4 | S(rot)=       0.00979685 Eh      6.15 kcal/mol|
|  sn= 5 | S(rot)=       0.00958616 Eh      6.02 kcal/mol|
|  sn= 6 | S(rot)=       0.00941402 Eh      5.91 kcal/mol|
|  sn= 7 | S(rot)=       0.00926847 Eh      5.82 kcal/mol|
|  sn= 8 | S(rot)=       0.00914240 Eh      5.74 kcal/mol|
|  sn= 9 | S(rot)=       0.00903119 Eh      5.67 kcal/mol|
|  sn=10 | S(rot)=       0.00893171 Eh      5.60 kcal/mol|
|  sn=11 | S(rot)=       0.00884172 Eh      5.55 kcal/mol|
|  sn=12 | S(rot)=       0.00875956 Eh      5.50 kcal/mol|
 --------------------------------------------------------


-------------------
GIBBS FREE ENERGY
-------------------

The Gibbs free energy is G = H - T*S

Total enthalpy                    ...  -5743.75083873 Eh 
Total entropy correction          ...     -0.03617143 Eh    -22.70 kcal/mol
-----------------------------------------------------------------------
Final Gibbs free energy         ...  -5743.78701017 Eh

For completeness - the Gibbs free energy minus the electronic energy
G-E(el)                           ...      0.04112897 Eh     25.81 kcal/mol


Timings for individual modules:

Sum of individual times         ...       46.512 sec (=   0.775 min)
GTO integral calculation        ...        3.068 sec (=   0.051 min)   6.6 %
Relativistic integrals          ...        2.032 sec (=   0.034 min)   4.4 %
SCF iterations                  ...       21.130 sec (=   0.352 min)  45.4 %
EPR/NMR calculation             ...        2.398 sec (=   0.040 min)   5.2 %
SCF Gradient evaluation         ...        6.120 sec (=   0.102 min)  13.2 %
Geometry relaxation             ...        0.349 sec (=   0.006 min)   0.7 %
Analytical frequency calculation...       11.414 sec (=   0.190 min)  24.5 %
                             ****ORCA TERMINATED NORMALLY****
TOTAL RUN TIME: 0 days 0 hours 0 minutes 48 seconds 190 msec
