
                                 *****************
                                 * O   R   C   A *
                                 *****************

                                            #,                                       
                                            ###                                      
                                            ####                                     
                                            #####                                    
                                            ######                                   
                                           ########,                                 
                                     ,,################,,,,,                         
                               ,,#################################,,                 
                          ,,##########################################,,             
                       ,#########################################, ''#####,          
                    ,#############################################,,   '####,        
                  ,##################################################,,,,####,       
                ,###########''''           ''''###############################       
              ,#####''   ,,,,##########,,,,          '''####'''          '####       
            ,##' ,,,,###########################,,,                        '##       
           ' ,,###''''                  '''############,,,                           
         ,,##''                                '''############,,,,        ,,,,,,###''
      ,#''                                            '''#######################'''  
     '                                                          ''''####''''         
             ,#######,   #######,   ,#######,      ##                                
            ,#'     '#,  ##    ##  ,#'     '#,    #''#        ######   ,####,        
            ##       ##  ##   ,#'  ##            #'  '#       #        #'  '#        
            ##       ##  #######   ##           ,######,      #####,   #    #        
            '#,     ,#'  ##    ##  '#,     ,#' ,#      #,         ##   #,  ,#        
             '#######'   ##     ##  '#######'  #'      '#     #####' # '####'        



                  #######################################################
                  #                        -***-                        #
                  #          Department of theory and spectroscopy      #
                  #    Directorship and core code : Frank Neese         #
                  #        Max Planck Institute fuer Kohlenforschung    #
                  #                Kaiser Wilhelm Platz 1               #
                  #                 D-45470 Muelheim/Ruhr               #
                  #                      Germany                        #
                  #                                                     #
                  #                  All rights reserved                #
                  #                        -***-                        #
                  #######################################################


                         Program Version 5.0.3 -  RELEASE  -


 With contributions from (in alphabetic order):
   Daniel Aravena         : Magnetic Suceptibility
   Michael Atanasov       : Ab Initio Ligand Field Theory (pilot matlab implementation)
   Alexander A. Auer      : GIAO ZORA, VPT2 properties, NMR spectrum
   Ute Becker             : Parallelization
   Giovanni Bistoni       : ED, misc. LED, open-shell LED, HFLD
   Martin Brehm           : Molecular dynamics
   Dmytro Bykov           : SCF Hessian
   Vijay G. Chilkuri      : MRCI spin determinant printing, contributions to CSF-ICE
   Dipayan Datta          : RHF DLPNO-CCSD density
   Achintya Kumar Dutta   : EOM-CC, STEOM-CC
   Dmitry Ganyushin       : Spin-Orbit,Spin-Spin,Magnetic field MRCI
   Miquel Garcia          : C-PCM and meta-GGA Hessian, CC/C-PCM, Gaussian charge scheme
   Yang Guo               : DLPNO-NEVPT2, F12-NEVPT2, CIM, IAO-localization
   Andreas Hansen         : Spin unrestricted coupled pair/coupled cluster methods
   Benjamin Helmich-Paris : MC-RPA, TRAH-SCF, COSX integrals
   Lee Huntington         : MR-EOM, pCC
   Robert Izsak           : Overlap fitted RIJCOSX, COSX-SCS-MP3, EOM
   Marcus Kettner         : VPT2
   Christian Kollmar      : KDIIS, OOCD, Brueckner-CCSD(T), CCSD density, CASPT2, CASPT2-K
   Simone Kossmann        : Meta GGA functionals, TD-DFT gradient, OOMP2, MP2 Hessian
   Martin Krupicka        : Initial AUTO-CI
   Lucas Lang             : DCDCAS
   Marvin Lechner         : AUTO-CI (C++ implementation), FIC-MRCC
   Dagmar Lenk            : GEPOL surface, SMD
   Dimitrios Liakos       : Extrapolation schemes; Compound Job, initial MDCI parallelization
   Dimitrios Manganas     : Further ROCIS development; embedding schemes
   Dimitrios Pantazis     : SARC Basis sets
   Anastasios Papadopoulos: AUTO-CI, single reference methods and gradients
   Taras Petrenko         : DFT Hessian,TD-DFT gradient, ASA, ECA, R-Raman, ABS, FL, XAS/XES, NRVS
   Peter Pinski           : DLPNO-MP2, DLPNO-MP2 Gradient
   Christoph Reimann      : Effective Core Potentials
   Marius Retegan         : Local ZFS, SOC
   Christoph Riplinger    : Optimizer, TS searches, QM/MM, DLPNO-CCSD(T), (RO)-DLPNO pert. Triples
   Tobias Risthaus        : Range-separated hybrids, TD-DFT gradient, RPA, STAB
   Michael Roemelt        : Original ROCIS implementation
   Masaaki Saitow         : Open-shell DLPNO-CCSD energy and density
   Barbara Sandhoefer     : DKH picture change effects
   Avijit Sen             : IP-ROCIS
   Kantharuban Sivalingam : CASSCF convergence, NEVPT2, FIC-MRCI
   Bernardo de Souza      : ESD, SOC TD-DFT
   Georgi Stoychev        : AutoAux, RI-MP2 NMR, DLPNO-MP2 response
   Willem Van den Heuvel  : Paramagnetic NMR
   Boris Wezisla          : Elementary symmetry handling
   Frank Wennmohs         : Technical directorship


 We gratefully acknowledge several colleagues who have allowed us to
 interface, adapt or use parts of their codes:
   Stefan Grimme, W. Hujo, H. Kruse, P. Pracht,  : VdW corrections, initial TS optimization,
                  C. Bannwarth, S. Ehlert          DFT functionals, gCP, sTDA/sTD-DF
   Ed Valeev, F. Pavosevic, A. Kumar             : LibInt (2-el integral package), F12 methods
   Garnet Chan, S. Sharma, J. Yang, R. Olivares  : DMRG
   Ulf Ekstrom                                   : XCFun DFT Library
   Mihaly Kallay                                 : mrcc  (arbitrary order and MRCC methods)
   Jiri Pittner, Ondrej Demel                    : Mk-CCSD
   Frank Weinhold                                : gennbo (NPA and NBO analysis)
   Christopher J. Cramer and Donald G. Truhlar   : smd solvation model
   Lars Goerigk                                  : TD-DFT with DH, B97 family of functionals
   V. Asgeirsson, H. Jonsson                     : NEB implementation
   FAccTs GmbH                                   : IRC, NEB, NEB-TS, DLPNO-Multilevel, CI-OPT
                                                   MM, QMMM, 2- and 3-layer-ONIOM, Crystal-QMMM,
                                                   LR-CPCM, SF, NACMEs, symmetry and pop. for TD-DFT,
                                                   nearIR, NL-DFT gradient (VV10), updates on ESD,
                                                   ML-optimized integration grids
   S Lehtola, MJT Oliveira, MAL Marques          : LibXC Library
   Liviu Ungur et al                             : ANISO software


 Your calculation uses the libint2 library for the computation of 2-el integrals
 For citations please refer to: http://libint.valeyev.net

 Your ORCA version has been built with support for libXC version: 5.1.0
 For citations please refer to: https://tddft.org/programs/libxc/

 This ORCA versions uses:
   CBLAS   interface :  Fast vector & matrix operations
   LAPACKE interface :  Fast linear algebra routines
   SCALAPACK package :  Parallel linear algebra routines
   Shared memory     :  Shared parallel matrices
   BLAS/LAPACK       :  OpenBLAS 0.3.15  USE64BITINT DYNAMIC_ARCH NO_AFFINITY Zen SINGLE_THREADED
        Core in use  :  Zen
   Copyright (c) 2011-2014, The OpenBLAS Project



Warning: The global flag for chemical shieldings has been found
         but shieldings for certain elements have also been explicitly requested in the EPRNMR block
         ==>> only the requested shieldings will be calculated

================================================================================

----- Orbital basis set information -----
The basis set includes element-specific modifications.

Your calculation utilizes the basis: def2-SVP
   F. Weigend and R. Ahlrichs, Phys. Chem. Chem. Phys. 7, 3297 (2005).

Your calculation utilizes the basis: def2-TZVP
   F. Weigend and R. Ahlrichs, Phys. Chem. Chem. Phys. 7, 3297 (2005).

----- AuxJ basis set information -----
Your calculation utilizes the auxiliary basis: SARC/J 
   decontracted def2/J up to Kr:
   F. Weigend, Phys. Chem. Chem. Phys. 8, 1057 (2006)
   and SARC auxiliary basis sets beyond Kr:
   D. A. Pantazis and F. Neese, J. Chem. Theory Comput. 5, 2229 (2009).
   D. A. Pantazis, X. Y. Chen, C. R. Landis and F. Neese, J. Chem. Theory Comput. 4, 908 (2008).
   D. A. Pantazis and F. Neese, Theor. Chem. Acc. 131, 1292 (2012).
   D. A. Pantazis and F. Neese, J. Chem. Theory Comput. 7, 677 (2011).

================================================================================
                                        WARNINGS
                       Please study these warnings very carefully!
================================================================================


WARNING: In scalar relativistic gradient/hessian runs we need the one-center approximation
  ===> : %rel OneCenter is turned on

WARNING: Geometry Optimization
  ===> : Switching off AutoStart
         For restart on a previous wavefunction, please use MOREAD
GIAOs and ZORA requested, numerical integration invoked ! 

INFO   : the flag for use of the SHARK integral package has been found!

================================================================================
                                       INPUT FILE
================================================================================
NAME = me2se_se_tzvp.inp
|  1> ! PBE0 ZORA SARC/J TIGHTOPT FREQ NMR
|  2> 
|  3> %basis
|  4>     NewGTO H   "def2-SVP" end
|  5>     NewGTO C   "def2-SVP" end
|  6>     NewGTO Se  "def2-TZVP"    end
|  7> end
|  8> 
|  9> 
| 10> # run in parallel
| 11> %PAL NPROCS 16 END
| 12> 
| 13> 
| 14> %maxcore 20000
| 15> 
| 16> * xyz 0 1 #charge & multiplicity (2*s+1)
| 17> Se        -0.30000       -0.51960        0.00000
| 18> C          1.63000       -0.51960        0.00000
| 19> C         -1.26500        1.15180        0.00000
| 20> H          1.99380       -1.54710        0.00000
| 21> H          1.99380       -0.00590       -0.88980
| 22> H          1.99380       -0.00590        0.88980
| 23> H         -2.33670        0.95320       -0.00000
| 24> H         -1.00200        1.72380        0.88980
| 25> H         -1.00200        1.72380       -0.88980
| 26> *
| 27> 
| 28> %eprnmr 
| 29>     nuclei = all Se {shift}
| 30> end
| 31> 
| 32>                          ****END OF INPUT****
================================================================================

                       *****************************
                       * Geometry Optimization Run *
                       *****************************

Geometry optimization settings:
Update method            Update   .... BFGS
Choice of coordinates    CoordSys .... Z-matrix Internals
Initial Hessian          InHess   .... Almoef's Model

Convergence Tolerances:
Energy Change            TolE     ....  1.0000e-06 Eh
Max. Gradient            TolMAXG  ....  1.0000e-04 Eh/bohr
RMS Gradient             TolRMSG  ....  3.0000e-05 Eh/bohr
Max. Displacement        TolMAXD  ....  1.0000e-03 bohr
RMS Displacement         TolRMSD  ....  6.0000e-04 bohr
Strict Convergence                ....  False
------------------------------------------------------------------------------
                        ORCA OPTIMIZATION COORDINATE SETUP
------------------------------------------------------------------------------

The optimization will be done in new redundant internal coordinates
Making redundant internal coordinates   ...  (new redundants) done
Evaluating the initial hessian          ...  (Almloef) done
Evaluating the coordinates              ...  done
Calculating the B-matrix                .... done
Calculating the G-matrix                .... done
Diagonalizing the G-matrix              .... done
The first mode is                       ....    6
The number of degrees of freedom        ....   21

    -----------------------------------------------------------------
                    Redundant Internal Coordinates


    -----------------------------------------------------------------
         Definition                    Initial Value    Approx d2E/dq
    -----------------------------------------------------------------
      1. B(C   1,Se  0)                  1.9300         0.417100   
      2. B(C   2,Se  0)                  1.9300         0.417139   
      3. B(H   3,C   1)                  1.0900         0.360096   
      4. B(H   4,C   1)                  1.0899         0.360172   
      5. B(H   5,C   1)                  1.0899         0.360172   
      6. B(H   6,C   2)                  1.0899         0.360171   
      7. B(H   7,C   2)                  1.0900         0.360102   
      8. B(H   8,C   2)                  1.0900         0.360102   
      9. A(C   1,Se  0,C   2)          120.0004         0.443664   
     10. A(Se  0,C   1,H   3)          109.4972         0.356551   
     11. A(H   3,C   1,H   4)          109.4437         0.290848   
     12. A(H   3,C   1,H   5)          109.4437         0.290848   
     13. A(Se  0,C   1,H   5)          109.4982         0.356563   
     14. A(H   4,C   1,H   5)          109.4463         0.290858   
     15. A(Se  0,C   1,H   4)          109.4982         0.356563   
     16. A(H   7,C   2,H   8)          109.4384         0.290840   
     17. A(H   6,C   2,H   8)          109.4427         0.290849   
     18. A(Se  0,C   2,H   8)          109.5008         0.356557   
     19. A(H   6,C   2,H   7)          109.4427         0.290849   
     20. A(Se  0,C   2,H   7)          109.5008         0.356557   
     21. A(Se  0,C   2,H   6)          109.5019         0.356569   
     22. D(H   5,C   1,Se  0,C   2)     60.0013         0.002919   
     23. D(H   3,C   1,Se  0,C   2)    180.0000         0.002919   
     24. D(H   4,C   1,Se  0,C   2)    -60.0013         0.002919   
     25. D(H   8,C   2,Se  0,C   1)     59.9980         0.002919   
     26. D(H   7,C   2,Se  0,C   1)    -59.9980         0.002919   
     27. D(H   6,C   2,Se  0,C   1)    180.0000         0.002919   
    -----------------------------------------------------------------

Number of atoms                         .... 9
Number of degrees of freedom            .... 27

         *************************************************************
         *                GEOMETRY OPTIMIZATION CYCLE   1            *
         *************************************************************
---------------------------------
CARTESIAN COORDINATES (ANGSTROEM)
---------------------------------
  Se    -0.300000   -0.519600    0.000000
  C      1.630000   -0.519600    0.000000
  C     -1.265000    1.151800    0.000000
  H      1.993800   -1.547100    0.000000
  H      1.993800   -0.005900   -0.889800
  H      1.993800   -0.005900    0.889800
  H     -2.336700    0.953200   -0.000000
  H     -1.002000    1.723800    0.889800
  H     -1.002000    1.723800   -0.889800

----------------------------
CARTESIAN COORDINATES (A.U.)
----------------------------
  NO LB      ZA    FRAG     MASS         X           Y           Z
   0 Se   34.0000    0    78.960   -0.566918   -0.981902    0.000000
   1 C     6.0000    0    12.011    3.080254   -0.981902    0.000000
   2 C     6.0000    0    12.011   -2.390504    2.176587    0.000000
   3 H     1.0000    0     1.008    3.767736   -2.923595    0.000000
   4 H     1.0000    0     1.008    3.767736   -0.011149   -1.681478
   5 H     1.0000    0     1.008    3.767736   -0.011149    1.681478
   6 H     1.0000    0     1.008   -4.415723    1.801287   -0.000000
   7 H     1.0000    0     1.008   -1.893506    3.257510    1.681478
   8 H     1.0000    0     1.008   -1.893506    3.257510   -1.681478

--------------------------------
INTERNAL COORDINATES (ANGSTROEM)
--------------------------------
 Se     0   0   0     0.000000000000     0.00000000     0.00000000
 C      1   0   0     1.930000000000     0.00000000     0.00000000
 C      1   2   0     1.929974859940   120.00043090     0.00000000
 H      2   1   3     1.090003068803   109.49718393   180.00000000
 H      2   1   3     1.089945948201   109.49824707   299.99873133
 H      2   1   3     1.089945948201   109.49824707    60.00126867
 H      3   1   2     1.089946260143   109.50187062   180.00000000
 H      3   1   2     1.089998642201   109.50076083   300.00198716
 H      3   1   2     1.089998642201   109.50076083    59.99801284

---------------------------
INTERNAL COORDINATES (A.U.)
---------------------------
 Se     0   0   0     0.000000000000     0.00000000     0.00000000
 C      1   0   0     3.647171438468     0.00000000     0.00000000
 C      1   2   0     3.647123930639   120.00043090     0.00000000
 H      2   1   3     2.059807285171   109.49718393   180.00000000
 H      2   1   3     2.059699342877   109.49824707   299.99873133
 H      2   1   3     2.059699342877   109.49824707    60.00126867
 H      3   1   2     2.059699932362   109.50187062   180.00000000
 H      3   1   2     2.059798920106   109.50076083   300.00198716
 H      3   1   2     2.059798920106   109.50076083    59.99801284

---------------------
BASIS SET INFORMATION
---------------------
There are 3 groups of distinct atoms

 Group   1 Type Se  : 17s13p8d1f contracted to 6s5p4d1f pattern {842111/64111/5111/1}
 Group   2 Type C   : 7s4p1d contracted to 3s2p1d pattern {511/31/1}
 Group   3 Type H   : 4s1p contracted to 2s1p pattern {31/1}

Atom   0Se   basis set group =>   1
Atom   1C    basis set group =>   2
Atom   2C    basis set group =>   2
Atom   3H    basis set group =>   3
Atom   4H    basis set group =>   3
Atom   5H    basis set group =>   3
Atom   6H    basis set group =>   3
Atom   7H    basis set group =>   3
Atom   8H    basis set group =>   3
---------------------------------
AUXILIARY/J BASIS SET INFORMATION
---------------------------------
There are 3 groups of distinct atoms

 Group   1 Type Se  : 19s5p5d3f1g contracted to 19s5p5d3f1g pattern {1111111111111111111/11111/11111/111/1}
 Group   2 Type C   : 12s5p4d2f1g contracted to 12s5p4d2f1g pattern {111111111111/11111/1111/11/1}
 Group   3 Type H   : 5s2p1d contracted to 5s2p1d pattern {11111/11/1}

Atom   0Se   basis set group =>   1
Atom   1C    basis set group =>   2
Atom   2C    basis set group =>   2
Atom   3H    basis set group =>   3
Atom   4H    basis set group =>   3
Atom   5H    basis set group =>   3
Atom   6H    basis set group =>   3
Atom   7H    basis set group =>   3
Atom   8H    basis set group =>   3


           ************************************************************
           *        Program running with 16 parallel MPI-processes    *
           *              working on a common directory               *
           ************************************************************
------------------------------------------------------------------------------
                           ORCA GTO INTEGRAL CALCULATION
                           -- RI-GTO INTEGRALS CHOSEN --
------------------------------------------------------------------------------
------------------------------------------------------------------------------
                   ___                                                        
                  /   \      - P O W E R E D   B Y -                         
                 /     \                                                     
                 |  |  |   _    _      __       _____    __    __             
                 |  |  |  | |  | |    /  \     |  _  \  |  |  /  |          
                  \  \/   | |  | |   /    \    | | | |  |  | /  /          
                 / \  \   | |__| |  /  /\  \   | |_| |  |  |/  /          
                |  |  |   |  __  | /  /__\  \  |    /   |      \           
                |  |  |   | |  | | |   __   |  |    \   |  |\   \          
                \     /   | |  | | |  |  |  |  | |\  \  |  | \   \       
                 \___/    |_|  |_| |__|  |__|  |_| \__\ |__|  \__/        
                                                                              
                      - O R C A' S   B I G   F R I E N D -                    
                                      &                                       
                       - I N T E G R A L  F E E D E R -                       
                                                                              
 v1 FN, 2020, v2 2021                                                         
------------------------------------------------------------------------------


Reading SHARK input file me2se_se_tzvp.SHARKINP.tmp ... ok
----------------------
SHARK INTEGRAL PACKAGE
----------------------

Number of atoms                             ...      9
Number of basis functions                   ...    106
Number of shells                            ...     46
Maximum angular momentum                    ...      3
Integral batch strategy                     ... SHARK/LIBINT Hybrid
RI-J (if used) integral strategy            ... SPLIT-RIJ (Revised 2003 algorithm where possible)
Printlevel                                  ...      1
Contraction scheme used                     ... SEGMENTED contraction
Coulomb Range Separation                    ... NOT USED
Exchange Range Separation                   ... NOT USED
Finite Nucleus Model                        ... NOT USED
Auxiliary Coulomb fitting basis             ... AVAILABLE
   # of basis functions in Aux-J            ...    325
   # of shells in Aux-J                     ...    129
   Maximum angular momentum in Aux-J        ...      4
Auxiliary J/K fitting basis                 ... NOT available
Auxiliary Correlation fitting basis         ... NOT available
Auxiliary 'external' fitting basis          ... NOT available
Integral threshold                          ...     2.500000e-11
Primitive cut-off                           ...     2.500000e-12
Primitive pair pre-selection threshold      ...     2.500000e-12

Calculating pre-screening integrals         ... done (  0.0 sec) Dimension = 46
Organizing shell pair data                  ... done (  0.0 sec)
Shell pair information
Total number of shell pairs                 ...      1081
Shell pairs after pre-screening             ...      1067
Total number of primitive shell pairs       ...      4481
Primitive shell pairs kept                  ...      3533
          la=0 lb=0:    295 shell pairs
          la=1 lb=0:    352 shell pairs
          la=1 lb=1:    119 shell pairs
          la=2 lb=0:    144 shell pairs
          la=2 lb=1:     90 shell pairs
          la=2 lb=2:     21 shell pairs
          la=3 lb=0:     24 shell pairs
          la=3 lb=1:     15 shell pairs
          la=3 lb=2:      6 shell pairs
          la=3 lb=3:      1 shell pairs

Calculating one electron integrals          ... done (  0.0 sec)
Calculating RI/J V-Matrix + Cholesky decomp.... done (  0.0 sec)
Calculating Nuclear repulsion               ... done (  0.0 sec) ENN=    185.988399588570 Eh

SHARK setup successfully completed in   0.1 seconds

Maximum memory used throughout the entire GTOINT-calculation: 18.5 MB


           ************************************************************
           *        Program running with 16 parallel MPI-processes    *
           *              working on a common directory               *
           ************************************************************
------------------------------------------------------------------------------
                          ORCA RELATIVISTIC HAMILTONIAN
------------------------------------------------------------------------------

Relativistic Method            ... ZORA(MP)
Treatment of potential         ... Van Wuellen
Nucleus model                  ... Point Nucleus
Speed of light used            ... 137.03598950000000


            *************************************************
            *         ZERO ORDER REGULAR APPROXIMATION      *
            *                     ZORA(MP)                  *
            *            Programmed by FN according to      *
            *                   C. van Wuellen              *
            *       J. Chem. Phys. (1998) vol 109, 392-399  *
            *************************************************

Terms included in model potential: +V(e,N)+V(C)+V(Xa)+V(VWN-V)
Basis function cutoff value   ... 1.000000e-11
Loading the fitted atomic densities (ZORA)   ... done
Calculating the cutoffs                      ... done
Number of fit functions                      ... 79
One center approximation for ZORA is active
Finding unique atoms                  ... 3 atom types
AtomType   0 (Se) Member=  0 NMembers=   1, NRad=2000 NumBF= 48
             ... doing numerical integration
             ... adding submatrices to 1 actual atoms
AtomType   1 (C ) Member=  1 NMembers=   2, NRad=2000 NumBF= 14
             ... doing numerical integration
             ... adding submatrices to 2 actual atoms
AtomType   2 (H ) Member=  3 NMembers=   6, NRad=2000 NumBF=  5
             ... doing numerical integration
             ... adding submatrices to 6 actual atoms
             ... done with one-center part

Maximum memory used throughout the entire REL-calculation: 0.8 MB


           ************************************************************
           *        Program running with 16 parallel MPI-processes    *
           *              working on a common directory               *
           ************************************************************
-------------------------------------------------------------------------------
                                 ORCA SCF
-------------------------------------------------------------------------------

------------
SCF SETTINGS
------------
Hamiltonian:
 Density Functional     Method          .... DFT(GTOs)
 Exchange Functional    Exchange        .... PBE
   PBE kappa parameter   XKappa         ....  0.804000
   PBE mue parameter    XMuePBE         ....  0.219520
 Correlation Functional Correlation     .... PBE
   PBE beta parameter  CBetaPBE         ....  0.066725
 LDA part of GGA corr.  LDAOpt          .... PW91-LDA
 Gradients option       PostSCFGGA      .... off
 Hybrid DFT is turned on
   Fraction HF Exchange ScalHFX         ....  0.250000
   Scaling of DF-GGA-X  ScalDFX         ....  0.750000
   Scaling of DF-GGA-C  ScalDFC         ....  1.000000
   Scaling of DF-LDA-C  ScalLDAC        ....  1.000000
   Perturbative correction              ....  0.000000
   Density functional embedding theory  .... OFF
   NL short-range parameter             ....  6.900000
 RI-approximation to the Coulomb term is turned on
   Number of AuxJ basis functions       .... 325
   RIJ-COSX (HFX calculated with COS-X)).... on

Relativistic Settings:
 Scalar relativistic method             .... ZORA
 Speed of light used       Velit        ....       137.035989
Orbital energies will be scaled


General Settings:
 Integral files         IntName         .... me2se_se_tzvp
 Hartree-Fock type      HFTyp           .... RHF
 Total Charge           Charge          ....    0
 Multiplicity           Mult            ....    1
 Number of Electrons    NEL             ....   52
 Basis Dimension        Dim             ....  106
 Nuclear Repulsion      ENuc            ....    185.9883995886 Eh

Convergence Acceleration:
 DIIS                   CNVDIIS         .... on
   Start iteration      DIISMaxIt       ....    12
   Startup error        DIISStart       ....  0.200000
   # of expansion vecs  DIISMaxEq       ....     5
   Bias factor          DIISBfac        ....   1.050
   Max. coefficient     DIISMaxC        ....  10.000
 Trust-Rad. Augm. Hess. CNVTRAH         .... auto
   Auto Start mean grad. ratio tolernc. ....  1.125000
   Auto Start start iteration           ....    20
   Auto Start num. interpolation iter.  ....    10
   Max. Number of Micro iterations      ....    16
   Max. Number of Macro iterations      .... Maxiter - #DIIS iter
   Number of Davidson start vectors     ....     2
   Converg. threshold I  (grad. norm)   ....   1.000e-05
   Converg. threshold II (energy diff.) ....   1.000e-08
   Grad. Scal. Fac. for Micro threshold ....   0.100
   Minimum threshold for Micro iter.    ....   0.010
   NR start threshold (gradient norm)   ....   0.001
   Initial trust radius                 ....   0.400
   Minimum AH scaling param. (alpha)    ....   1.000
   Maximum AH scaling param. (alpha)    .... 1000.000
   Orbital update algorithm             .... Taylor
   White noise on init. David. guess    .... on
   Maximum white noise                  ....   0.010
   Quad. conv. algorithm                .... NR
 SOSCF                  CNVSOSCF        .... on
   Start iteration      SOSCFMaxIt      ....   150
   Startup grad/error   SOSCFStart      ....  0.003300
 Level Shifting         CNVShift        .... on
   Level shift para.    LevelShift      ....    0.2500
   Turn off err/grad.   ShiftErr        ....    0.0010
 Zerner damping         CNVZerner       .... off
 Static damping         CNVDamp         .... on
   Fraction old density DampFac         ....    0.7000
   Max. Damping (<1)    DampMax         ....    0.9800
   Min. Damping (>=0)   DampMin         ....    0.0000
   Turn off err/grad.   DampErr         ....    0.1000
 Fernandez-Rico         CNVRico         .... off

SCF Procedure:
 Maximum # iterations   MaxIter         ....   125
 SCF integral mode      SCFMode         .... Direct
   Integral package                     .... SHARK and LIBINT hybrid scheme
 Reset frequency        DirectResetFreq ....    20
 Integral Threshold     Thresh          ....  2.500e-11 Eh
 Primitive CutOff       TCut            ....  2.500e-12 Eh

Convergence Tolerance:
 Convergence Check Mode ConvCheckMode   .... Total+1el-Energy
 Convergence forced     ConvForced      .... 0
 Energy Change          TolE            ....  1.000e-08 Eh
 1-El. energy change                    ....  1.000e-05 Eh
 Orbital Gradient       TolG            ....  1.000e-05
 Orbital Rotation angle TolX            ....  1.000e-05
 DIIS Error             TolErr          ....  5.000e-07


Diagonalization of the overlap matrix:
Smallest eigenvalue                        ... 5.104e-03
Time for diagonalization                   ...    0.001 sec
Threshold for overlap eigenvalues          ... 1.000e-08
Number of eigenvalues below threshold      ... 0
Time for construction of square roots      ...    0.001 sec
Total time needed                          ...    0.002 sec

Time for model grid setup =    0.037 sec

------------------------------
INITIAL GUESS: MODEL POTENTIAL
------------------------------
Loading ZORA relativistic densities                ... done
Calculating cut-offs                               ... done
Initializing the effective Hamiltonian             ... done
Setting up the integral package (SHARK)            ... done
Starting the Coulomb interaction                   ... done (   0.0 sec)
Reading the grid                                   ... done
Mapping shells                                     ... done
Starting the XC term evaluation                    ... done (   0.0 sec)
  promolecular density results
     # of electrons  =     51.997902450
     EX              =    -99.381675141
     EC              =     -2.215362158
     EX+EC           =   -101.597037299
Transforming the Hamiltonian                       ... done (   0.0 sec)
Diagonalizing the Hamiltonian                      ... done (   0.0 sec)
Back transforming the eigenvectors                 ... done (   0.0 sec)
Now organizing SCF variables                       ... done
                      ------------------
                      INITIAL GUESS DONE (   0.1 sec)
                      ------------------
-------------------
DFT GRID GENERATION
-------------------

General Integration Accuracy     IntAcc      ... 4.388
Radial Grid Type                 RadialGrid  ... OptM3 with GC (2021)
Angular Grid (max. ang.)         AngularGrid ... 4 (Lebedev-302)
Angular grid pruning method      GridPruning ... 4 (adaptive)
Weight generation scheme         WeightScheme... Becke
Basis function cutoff            BFCut       ... 1.0000e-11
Integration weight cutoff        WCut        ... 1.0000e-14
Angular grids for H and He will be reduced by one unit
Partially contracted basis set               ... off
Rotationally invariant grid construction     ... off

Total number of grid points                  ...    43051
Total number of batches                      ...      676
Average number of points per batch           ...       63
Average number of grid points per atom       ...     4783
Time for grid setup =    0.207 sec

--------------------
COSX GRID GENERATION
--------------------

GRIDX 1
-------
General Integration Accuracy     IntAcc      ... 3.816
Radial Grid Type                 RadialGrid  ... OptM3 with GC (2021)
Angular Grid (max. ang.)         AngularGrid ... 1 (Lebedev-50)
Angular grid pruning method      GridPruning ... 4 (adaptive)
Weight generation scheme         WeightScheme... Becke
Basis function cutoff            BFCut       ... 1.0000e-11
Integration weight cutoff        WCut        ... 1.0000e-14
Angular grids for H and He will be reduced by one unit
Partially contracted basis set               ... on
Rotationally invariant grid construction     ... off

Total number of grid points                  ...     5374
Total number of batches                      ...       89
Average number of points per batch           ...       60
Average number of grid points per atom       ...      597
UseSFitting                                  ... on

GRIDX 2
-------
General Integration Accuracy     IntAcc      ... 4.020
Radial Grid Type                 RadialGrid  ... OptM3 with GC (2021)
Angular Grid (max. ang.)         AngularGrid ... 2 (Lebedev-110)
Angular grid pruning method      GridPruning ... 4 (adaptive)
Weight generation scheme         WeightScheme... Becke
Basis function cutoff            BFCut       ... 1.0000e-11
Integration weight cutoff        WCut        ... 1.0000e-14
Angular grids for H and He will be reduced by one unit
Partially contracted basis set               ... on
Rotationally invariant grid construction     ... off

Total number of grid points                  ...    11109
Total number of batches                      ...      177
Average number of points per batch           ...       62
Average number of grid points per atom       ...     1234
UseSFitting                                  ... on

GRIDX 3
-------
General Integration Accuracy     IntAcc      ... 4.338
Radial Grid Type                 RadialGrid  ... OptM3 with GC (2021)
Angular Grid (max. ang.)         AngularGrid ... 3 (Lebedev-194)
Angular grid pruning method      GridPruning ... 4 (adaptive)
Weight generation scheme         WeightScheme... Becke
Basis function cutoff            BFCut       ... 1.0000e-11
Integration weight cutoff        WCut        ... 1.0000e-14
Angular grids for H and He will be reduced by one unit
Partially contracted basis set               ... on
Rotationally invariant grid construction     ... off

Total number of grid points                  ...    24603
Total number of batches                      ...      389
Average number of points per batch           ...       63
Average number of grid points per atom       ...     2734
UseSFitting                                  ... on

Time for X-Grid setup             =    0.108 sec

--------------
SCF ITERATIONS
--------------
ITER       Energy         Delta-E        Max-DP      RMS-DP      [F,P]     Damp
               ***  Starting incremental Fock matrix formation  ***
  0  -2521.8040746988   0.000000000000 0.07119644  0.00215146  0.1822758 0.7000
  1  -2521.8579242586  -0.053849559828 0.04335383  0.00148256  0.0860133 0.7000
                               ***Turning on DIIS***
  2  -2521.8803056257  -0.022381367162 0.06425277  0.00265908  0.0397702 0.0000
  3  -2521.9126528795  -0.032347253809 0.03443654  0.00102842  0.0453044 0.0000
  4  -2521.9214345956  -0.008781716101 0.00731164  0.00024623  0.0073925 0.0000
                      *** Initiating the SOSCF procedure ***
                           *** Shutting down DIIS ***
                      *** Re-Reading the Fockian *** 
                      *** Removing any level shift *** 
ITER      Energy       Delta-E        Grad      Rot      Max-DP    RMS-DP
  5  -2521.92168046  -0.0002458689  0.000868  0.000868  0.001847  0.000078
               *** Restarting incremental Fock matrix formation ***
  6  -2521.92171215  -0.0000316819  0.000322  0.000946  0.000870  0.000052
  7  -2521.92171271  -0.0000005610  0.000298  0.000224  0.000633  0.000017
  8  -2521.92171429  -0.0000015839  0.000061  0.000045  0.000122  0.000004
  9  -2521.92171430  -0.0000000067  0.000060  0.000022  0.000082  0.000002
 10  -2521.92171431  -0.0000000145  0.000003  0.000005  0.000009  0.000000
                  ***Gradient check signals convergence***
              ***Rediagonalizing the Fockian in SOSCF/NRSCF***

               *****************************************************
               *                     SUCCESS                       *
               *           SCF CONVERGED AFTER  11 CYCLES          *
               *****************************************************

Old exchange energy                            =    -24.542440703 Eh
New exchange energy                            =    -24.542435229 Eh
Exchange energy change after final integration =      0.000005475 Eh
Total energy after final integration           =  -2521.921708832 Eh
Final COS-X integration done in                =     0.160 sec

----------------
TOTAL SCF ENERGY
----------------

Total Energy       :        -2521.92170883 Eh          -68624.97852 eV

Components:
Nuclear Repulsion  :          185.98839959 Eh            5061.00165 eV
Electronic Energy  :        -2707.91010842 Eh          -73685.98017 eV
One Electron Energy:        -3864.81692677 Eh         -105167.01517 eV
Two Electron Energy:         1156.90681835 Eh           31481.03499 eV
Max COSX asymmetry :            0.00000970 Eh               0.00026 eV

Virial components:
Potential Energy   :        -4967.54166127 Eh         -135173.68070 eV
Kinetic Energy     :         2445.61995244 Eh           66548.70218 eV
Virial Ratio       :            2.03119935


DFT components:
N(Alpha)           :       26.000005837493 electrons
N(Beta)            :       26.000005837493 electrons
N(Total)           :       52.000011674987 electrons
E(X)               :      -73.319450994549 Eh       
E(C)               :       -2.235268243381 Eh       
E(XC)              :      -75.554719237930 Eh       
DFET-embed. en.    :        0.000000000000 Eh       

---------------
SCF CONVERGENCE
---------------

  Last Energy change         ...    6.1118e-09  Tolerance :   1.0000e-08
  Last MAX-Density change    ...    3.9968e-15  Tolerance :   1.0000e-07
  Last RMS-Density change    ...    7.0416e-17  Tolerance :   5.0000e-09
  Last Orbital Gradient      ...    2.1072e-06  Tolerance :   1.0000e-05
  Last Orbital Rotation      ...    2.0833e-06  Tolerance :   1.0000e-05

             **** THE GBW FILE WAS UPDATED (me2se_se_tzvp.gbw) ****
             **** DENSITY me2se_se_tzvp.scfp WAS UPDATED ****
             **** ENERGY FILE WAS UPDATED (me2se_se_tzvp.en.tmp) ****
             **** THE GBW FILE WAS UPDATED (me2se_se_tzvp.gbw) ****
             **** DENSITY me2se_se_tzvp.scfp WAS UPDATED ****
----------------
ORBITAL ENERGIES
----------------

  NO   OCC          E(Eh)            E(eV) 
   0   2.0000    -468.588841    -12750.9506 
   1   2.0000     -60.058469     -1634.2740 
   2   2.0000     -52.998215     -1442.1548 
   3   2.0000     -52.997903     -1442.1463 
   4   2.0000     -52.996348     -1442.1039 
   5   2.0000     -10.268626      -279.4235 
   6   2.0000     -10.268587      -279.4225 
   7   2.0000      -8.125774      -221.1136 
   8   2.0000      -5.873209      -159.8182 
   9   2.0000      -5.869283      -159.7113 
  10   2.0000      -5.860817      -159.4809 
  11   2.0000      -2.080592       -56.6158 
  12   2.0000      -2.080478       -56.6127 
  13   2.0000      -2.072891       -56.4062 
  14   2.0000      -2.069654       -56.3182 
  15   2.0000      -2.068208       -56.2788 
  16   2.0000      -0.791907       -21.5489 
  17   2.0000      -0.724021       -19.7016 
  18   2.0000      -0.613570       -16.6961 
  19   2.0000      -0.446203       -12.1418 
  20   2.0000      -0.442062       -12.0291 
  21   2.0000      -0.434544       -11.8246 
  22   2.0000      -0.426486       -11.6053 
  23   2.0000      -0.388257       -10.5650 
  24   2.0000      -0.284467        -7.7407 
  25   2.0000      -0.213182        -5.8010 
  26   0.0000       0.017864         0.4861 
  27   0.0000       0.064022         1.7421 
  28   0.0000       0.077460         2.1078 
  29   0.0000       0.122008         3.3200 
  30   0.0000       0.126156         3.4329 
  31   0.0000       0.131126         3.5681 
  32   0.0000       0.146515         3.9869 
  33   0.0000       0.153405         4.1744 
  34   0.0000       0.244998         6.6667 
  35   0.0000       0.257095         6.9959 
  36   0.0000       0.265512         7.2250 
  37   0.0000       0.289254         7.8710 
  38   0.0000       0.299282         8.1439 
  39   0.0000       0.310956         8.4616 
  40   0.0000       0.319383         8.6909 
  41   0.0000       0.428811        11.6685 
  42   0.0000       0.512107        13.9351 
  43   0.0000       0.518128        14.0990 
  44   0.0000       0.548539        14.9265 
  45   0.0000       0.549359        14.9488 
  46   0.0000       0.584141        15.8953 
  47   0.0000       0.618879        16.8405 
  48   0.0000       0.652800        17.7636 
  49   0.0000       0.653343        17.7784 
  50   0.0000       0.676585        18.4108 
  51   0.0000       0.681935        18.5564 
  52   0.0000       0.692288        18.8381 
  53   0.0000       0.696694        18.9580 
  54   0.0000       0.723348        19.6833 
  55   0.0000       0.882766        24.0213 
  56   0.0000       0.991534        26.9810 
  57   0.0000       1.098204        29.8836 
  58   0.0000       1.116560        30.3831 
  59   0.0000       1.139553        31.0088 
  60   0.0000       1.145371        31.1671 
  61   0.0000       1.201502        32.6945 
  62   0.0000       1.211940        32.9786 
  63   0.0000       1.217872        33.1400 
  64   0.0000       1.247629        33.9497 
  65   0.0000       1.352730        36.8097 
  66   0.0000       1.361518        37.0488 
  67   0.0000       1.427929        38.8559 
  68   0.0000       1.448521        39.4162 
  69   0.0000       1.466946        39.9176 
  70   0.0000       1.519737        41.3541 
  71   0.0000       1.525519        41.5115 
  72   0.0000       1.526021        41.5251 
  73   0.0000       1.572486        42.7895 
  74   0.0000       1.578058        42.9411 
  75   0.0000       1.593297        43.3558 
  76   0.0000       1.701219        46.2925 
  77   0.0000       1.770082        48.1664 
  78   0.0000       1.794872        48.8409 
  79   0.0000       1.802969        49.0613 
  80   0.0000       1.805708        49.1358 
  81   0.0000       1.848606        50.3031 
  82   0.0000       1.952210        53.1223 
  83   0.0000       2.004608        54.5482 
  84   0.0000       2.039930        55.5093 
  85   0.0000       2.047694        55.7206 
  86   0.0000       2.092747        56.9465 
  87   0.0000       2.095117        57.0110 
  88   0.0000       2.319514        63.1172 
  89   0.0000       2.371391        64.5288 
  90   0.0000       2.455121        66.8072 
  91   0.0000       2.460653        66.9578 
  92   0.0000       2.472893        67.2908 
  93   0.0000       2.513834        68.4049 
  94   0.0000       2.743693        74.6597 
  95   0.0000       2.746445        74.7346 
  96   0.0000       2.910141        79.1890 
  97   0.0000       2.918162        79.4072 
  98   0.0000       2.935093        79.8679 
  99   0.0000       2.956704        80.4560 
 100   0.0000       3.567161        97.0674 
 101   0.0000       3.580213        97.4225 
 102   0.0000       3.606164        98.1287 
 103   0.0000       3.722781       101.3020 
 104   0.0000       3.810285       103.6831 
 105   0.0000       6.186964       168.3559 

                    ********************************
                    * MULLIKEN POPULATION ANALYSIS *
                    ********************************

-----------------------
MULLIKEN ATOMIC CHARGES
-----------------------
   0 Se:   -0.338488
   1 C :   -0.045646
   2 C :   -0.045290
   3 H :    0.079628
   4 H :    0.067635
   5 H :    0.067635
   6 H :    0.079786
   7 H :    0.067370
   8 H :    0.067370
Sum of atomic charges:   -0.0000000

--------------------------------
MULLIKEN REDUCED ORBITAL CHARGES
--------------------------------
  0 Ses       :     7.944053  s :     7.944053
      pz      :     5.975655  p :    16.206172
      px      :     5.017477
      py      :     5.213040
      dz2     :     2.026323  d :    10.166168
      dxz     :     2.019489
      dyz     :     2.013767
      dx2y2   :     2.059601
      dxy     :     2.046988
      f0      :     0.002244  f :     0.022094
      f+1     :     0.003105
      f-1     :     0.002083
      f+2     :     0.002641
      f-2     :     0.001149
      f+3     :     0.005166
      f-3     :     0.005706
  1 C s       :     3.050040  s :     3.050040
      pz      :     1.036927  p :     2.971315
      px      :     0.904891
      py      :     1.029497
      dz2     :     0.004888  d :     0.024291
      dxz     :     0.006180
      dyz     :     0.004650
      dx2y2   :     0.005443
      dxy     :     0.003130
  2 C s       :     3.049862  s :     3.049862
      pz      :     1.036844  p :     2.971142
      px      :     0.985778
      py      :     0.948519
      dz2     :     0.004887  d :     0.024287
      dxz     :     0.001573
      dyz     :     0.009258
      dx2y2   :     0.005027
      dxy     :     0.003542
  3 H s       :     0.894847  s :     0.894847
      pz      :     0.005550  p :     0.025524
      px      :     0.005810
      py      :     0.014164
  4 H s       :     0.907035  s :     0.907035
      pz      :     0.011884  p :     0.025330
      px      :     0.006084
      py      :     0.007362
  5 H s       :     0.907036  s :     0.907036
      pz      :     0.011884  p :     0.025330
      px      :     0.006084
      py      :     0.007362
  6 H s       :     0.894685  s :     0.894685
      pz      :     0.005552  p :     0.025529
      px      :     0.015100
      py      :     0.004877
  7 H s       :     0.907294  s :     0.907294
      pz      :     0.011888  p :     0.025336
      px      :     0.005683
      py      :     0.007765
  8 H s       :     0.907294  s :     0.907294
      pz      :     0.011888  p :     0.025336
      px      :     0.005683
      py      :     0.007765


                     *******************************
                     * LOEWDIN POPULATION ANALYSIS *
                     *******************************

----------------------
LOEWDIN ATOMIC CHARGES
----------------------
   0 Se:   -0.238604
   1 C :   -0.020297
   2 C :   -0.020244
   3 H :    0.060866
   4 H :    0.039366
   5 H :    0.039366
   6 H :    0.060885
   7 H :    0.039331
   8 H :    0.039331

-------------------------------
LOEWDIN REDUCED ORBITAL CHARGES
-------------------------------
  0 Ses       :     7.559958  s :     7.559958
      pz      :     5.929958  p :    16.277893
      px      :     5.075622
      py      :     5.272313
      dz2     :     2.050431  d :    10.353817
      dxz     :     2.045004
      dyz     :     2.033923
      dx2y2   :     2.120399
      dxy     :     2.104059
      f0      :     0.004253  f :     0.046936
      f+1     :     0.006597
      f-1     :     0.004100
      f+2     :     0.004913
      f-2     :     0.002270
      f+3     :     0.014006
      f-3     :     0.010796
  1 C s       :     2.846313  s :     2.846313
      pz      :     1.067914  p :     3.111579
      px      :     0.984266
      py      :     1.059399
      dz2     :     0.012555  d :     0.062404
      dxz     :     0.014380
      dyz     :     0.012680
      dx2y2   :     0.014303
      dxy     :     0.008486
  2 C s       :     2.846300  s :     2.846300
      pz      :     1.067886  p :     3.111541
      px      :     1.027812
      py      :     1.015843
      dz2     :     0.012553  d :     0.062403
      dxz     :     0.003623
      dyz     :     0.023436
      dx2y2   :     0.014130
      dxy     :     0.008660
  3 H s       :     0.870620  s :     0.870620
      pz      :     0.013159  p :     0.068514
      px      :     0.015774
      py      :     0.039580
  4 H s       :     0.890731  s :     0.890731
      pz      :     0.033010  p :     0.069903
      px      :     0.017545
      py      :     0.019348
  5 H s       :     0.890731  s :     0.890731
      pz      :     0.033010  p :     0.069903
      px      :     0.017545
      py      :     0.019348
  6 H s       :     0.870584  s :     0.870584
      pz      :     0.013163  p :     0.068531
      px      :     0.041808
      py      :     0.013559
  7 H s       :     0.890778  s :     0.890778
      pz      :     0.033001  p :     0.069891
      px      :     0.014688
      py      :     0.022202
  8 H s       :     0.890778  s :     0.890778
      pz      :     0.033001  p :     0.069891
      px      :     0.014688
      py      :     0.022202


                      *****************************
                      * MAYER POPULATION ANALYSIS *
                      *****************************

  NA   - Mulliken gross atomic population
  ZA   - Total nuclear charge
  QA   - Mulliken gross atomic charge
  VA   - Mayer's total valence
  BVA  - Mayer's bonded valence
  FA   - Mayer's free valence

  ATOM       NA         ZA         QA         VA         BVA        FA
  0 Se    34.3385    34.0000    -0.3385     2.1455     2.1455    -0.0000
  1 C      6.0456     6.0000    -0.0456     3.9383     3.9383    -0.0000
  2 C      6.0453     6.0000    -0.0453     3.9382     3.9382     0.0000
  3 H      0.9204     1.0000     0.0796     0.9865     0.9865    -0.0000
  4 H      0.9324     1.0000     0.0676     0.9655     0.9655    -0.0000
  5 H      0.9324     1.0000     0.0676     0.9655     0.9655    -0.0000
  6 H      0.9202     1.0000     0.0798     0.9864     0.9864    -0.0000
  7 H      0.9326     1.0000     0.0674     0.9657     0.9657    -0.0000
  8 H      0.9326     1.0000     0.0674     0.9657     0.9657    -0.0000

  Mayer bond orders larger than 0.100000
B(  0-Se,  1-C ) :   1.0317 B(  0-Se,  2-C ) :   1.0315 B(  1-C ,  3-H ) :   0.9550 
B(  1-C ,  4-H ) :   0.9620 B(  1-C ,  5-H ) :   0.9620 B(  2-C ,  6-H ) :   0.9549 
B(  2-C ,  7-H ) :   0.9620 B(  2-C ,  8-H ) :   0.9620 

-------
TIMINGS
-------

Total SCF time: 0 days 0 hours 0 min 2 sec 

Total time                  ....       2.010 sec
Sum of individual times     ....       1.928 sec  ( 95.9%)

Fock matrix formation       ....       1.511 sec  ( 75.2%)
  Split-RI-J                ....       0.238 sec  ( 15.7% of F)
  Chain of spheres X        ....       1.037 sec  ( 68.6% of F)
  XC integration            ....       0.212 sec  ( 14.0% of F)
    Basis function eval.    ....       0.059 sec  ( 27.8% of XC)
    Density eval.           ....       0.034 sec  ( 16.2% of XC)
    XC-Functional eval.     ....       0.019 sec  (  9.0% of XC)
    XC-Potential eval.      ....       0.036 sec  ( 16.8% of XC)
Diagonalization             ....       0.016 sec  (  0.8%)
Density matrix formation    ....       0.002 sec  (  0.1%)
Population analysis         ....       0.003 sec  (  0.2%)
Initial guess               ....       0.015 sec  (  0.8%)
Orbital Transformation      ....       0.000 sec  (  0.0%)
Orbital Orthonormalization  ....       0.000 sec  (  0.0%)
DIIS solution               ....       0.015 sec  (  0.8%)
SOSCF solution              ....       0.013 sec  (  0.7%)
Grid generation             ....       0.353 sec  ( 17.5%)

Maximum memory used throughout the entire SCF-calculation: 61.1 MB

-------------------------   --------------------
FINAL SINGLE POINT ENERGY     -2521.921708831649
-------------------------   --------------------



           ************************************************************
           *        Program running with 16 parallel MPI-processes    *
           *              working on a common directory               *
           ************************************************************
------------------------------------------------------------------------------
                         ORCA SCF GRADIENT CALCULATION
------------------------------------------------------------------------------

 ... reading COSX grid (gridx3)
Gradient of the Kohn-Sham DFT energy:
Kohn-Sham wavefunction type      ... RKS
Hartree-Fock exchange scaling    ...    0.250
Number of operators              ...    1
Number of atoms                  ...    9
Basis set dimensions             ...  106
Integral neglect threshold       ... 2.5e-11
Integral primitive cutoff        ... 2.5e-12
SHARK Integral package           ... ON

Nuc. rep. gradient       (SHARK) ... done (  0.0 sec)
HCore & Overlap gradient (SHARK) ... done (  0.0 sec)
RI-J gradient            (SHARK) ... done (  0.2 sec)
COSX-gradient                    ... done (  0.2 sec)
Exchange-correlation gradient    ... done

------------------
CARTESIAN GRADIENT
------------------

   1   Se  :    0.026891973    0.046447545   -0.000000107
   2   C   :   -0.000615252   -0.033515970   -0.000000011
   3   C   :   -0.028813755   -0.017425030    0.000000011
   4   H   :    0.008336947    0.007101225   -0.000000008
   5   H   :   -0.005720928   -0.001207200    0.004125099
   6   H   :   -0.005720929   -0.001207200   -0.004125100
   7   H   :    0.001995487    0.010777461   -0.000000005
   8   H   :    0.001786147   -0.005549511   -0.004106144
   9   H   :    0.001786159   -0.005549507    0.004106135

Difference to translation invariance:
           :   -0.0000741497   -0.0001281850   -0.0000001311

Difference to rotation invariance:
           :    0.0000001288   -0.0000000286    0.0007012629

Norm of the cartesian gradient     ...    0.0747146875
RMS gradient                       ...    0.0143788483
MAX gradient                       ...    0.0464475454

-------
TIMINGS
-------

Total SCF gradient time            ...        0.551 sec

One electron gradient       ....       0.006 sec  (  1.1%)
RI-J Coulomb gradient       ....       0.160 sec  ( 29.0%)
COSX gradient               ....       0.196 sec  ( 35.6%)
XC gradient                 ....       0.064 sec  ( 11.7%)

Maximum memory used throughout the entire SCFGRAD-calculation: 36.0 MB
------------------------------------------------------------------------------
                         ORCA GEOMETRY RELAXATION STEP
------------------------------------------------------------------------------

Reading the OPT-File                    .... done
Getting information on internals        .... done
Copying old internal coords+grads       .... done
Making the new internal coordinates     .... (new redundants).... done
Validating the new internal coordinates .... (new redundants).... done
Calculating the B-matrix                .... done
Calculating the G,G- and P matrices     .... done
Transforming gradient to internals      .... done
Projecting the internal gradient        .... done
Number of atoms                         ....   9
Number of internal coordinates          ....  27
Current Energy                          .... -2521.921708832 Eh
Current gradient norm                   ....     0.074714687 Eh/bohr
Maximum allowed component of the step   ....  0.300
Current trust radius                    ....  0.300
Evaluating the initial hessian          ....  (Almloef) done
Projecting the Hessian                  .... done
Forming the augmented Hessian           .... done
Diagonalizing the augmented Hessian     .... done
Last element of RFO vector              ....  0.981441324
Lowest eigenvalues of augmented Hessian:
 -0.016009769  0.002918890  0.002919156  0.185402006  0.185410355
Length of the computed step             ....  0.195388845
The final length of the internal step   ....  0.195388845
Converting the step to cartesian space:
 Initial RMS(Int)=    0.0376026007
Transforming coordinates:
 Iter   0:  RMS(Cart)=    0.0960611892 RMS(Int)=    1.2097902367
 Iter   1:  RMS(Cart)=    0.0060946665 RMS(Int)=    0.0032494767
 Iter   2:  RMS(Cart)=    0.0002510256 RMS(Int)=    0.0001482271
 Iter   3:  RMS(Cart)=    0.0000407425 RMS(Int)=    0.0000210542
 Iter   4:  RMS(Cart)=    0.0000013888 RMS(Int)=    0.0000010773
 Iter   5:  RMS(Cart)=    0.0000002731 RMS(Int)=    0.0000001358
 Iter   6:  RMS(Cart)=    0.0000000080 RMS(Int)=    0.0000000077
done
Storing new coordinates                 .... done

                                .--------------------.
          ----------------------|Geometry convergence|-------------------------
          Item                value                   Tolerance       Converged
          ---------------------------------------------------------------------
          RMS gradient        0.0159962043            0.0000300000      NO
          MAX gradient        0.0747411416            0.0001000000      NO
          RMS step            0.0376026007            0.0006000000      NO
          MAX step            0.1625960864            0.0010000000      NO
          ........................................................
          Max(Bonds)      0.0082      Max(Angles)    9.32
          Max(Dihed)        1.10      Max(Improp)    0.00
          ---------------------------------------------------------------------

The optimization has not yet converged - more geometry cycles are needed


    ---------------------------------------------------------------------------
                         Redundant Internal Coordinates
                            (Angstroem and degrees)

        Definition                    Value    dE/dq     Step     New-Value
    ----------------------------------------------------------------------------
     1. B(C   1,Se  0)                1.9300 -0.003725  0.0046    1.9346   
     2. B(C   2,Se  0)                1.9300 -0.003675  0.0045    1.9345   
     3. B(H   3,C   1)                1.0900 -0.003910  0.0055    1.0955   
     4. B(H   4,C   1)                1.0899 -0.005847  0.0082    1.0982   
     5. B(H   5,C   1)                1.0899 -0.005847  0.0082    1.0982   
     6. B(H   6,C   2)                1.0899 -0.003948  0.0056    1.0955   
     7. B(H   7,C   2)                1.0900 -0.005813  0.0082    1.0982   
     8. B(H   8,C   2)                1.0900 -0.005813  0.0082    1.0982   
     9. A(C   1,Se  0,C   2)          120.00  0.074741   -9.32    110.68   
    10. A(Se  0,C   1,H   3)          109.50  0.019265   -3.23    106.27   
    11. A(H   3,C   1,H   4)          109.44 -0.001774    0.01    109.45   
    12. A(H   3,C   1,H   5)          109.44 -0.001774    0.01    109.45   
    13. A(Se  0,C   1,H   5)          109.50 -0.008486    1.42    110.92   
    14. A(H   4,C   1,H   5)          109.45  0.001254    0.37    109.82   
    15. A(Se  0,C   1,H   4)          109.50 -0.008486    1.42    110.92   
    16. A(H   7,C   2,H   8)          109.44  0.001223    0.38    109.82   
    17. A(H   6,C   2,H   8)          109.44 -0.001807    0.01    109.45   
    18. A(Se  0,C   2,H   8)          109.50 -0.008480    1.42    110.92   
    19. A(H   6,C   2,H   7)          109.44 -0.001807    0.01    109.45   
    20. A(Se  0,C   2,H   7)          109.50 -0.008480    1.42    110.92   
    21. A(Se  0,C   2,H   6)          109.50  0.019348   -3.24    106.26   
    22. D(H   5,C   1,Se  0,C   2)     60.00 -0.004436    1.10     61.10   
    23. D(H   3,C   1,Se  0,C   2)    180.00 -0.000000    0.00    180.00   
    24. D(H   4,C   1,Se  0,C   2)    -60.00  0.004436   -1.10    -61.10   
    25. D(H   8,C   2,Se  0,C   1)     60.00 -0.004452    1.10     61.10   
    26. D(H   7,C   2,Se  0,C   1)    -60.00  0.004452   -1.10    -61.10   
    27. D(H   6,C   2,Se  0,C   1)    180.00  0.000000   -0.00    180.00   
    ----------------------------------------------------------------------------

         *************************************************************
         *                GEOMETRY OPTIMIZATION CYCLE   2            *
         *************************************************************
---------------------------------
CARTESIAN COORDINATES (ANGSTROEM)
---------------------------------
  Se    -0.362804   -0.628228    0.000001
  C      1.565363   -0.471199    0.000000
  C     -1.190740    1.120107    0.000000
  H      1.956608   -1.494458   -0.000001
  H      1.915698    0.054287   -0.898392
  H      1.915700    0.054287    0.898393
  H     -2.272510    0.947204   -0.000001
  H     -0.910808    1.686250    0.898395
  H     -0.910807    1.686250   -0.898395

----------------------------
CARTESIAN COORDINATES (A.U.)
----------------------------
  NO LB      ZA    FRAG     MASS         X           Y           Z
   0 Se   34.0000    0    78.960   -0.685600   -1.187179    0.000002
   1 C     6.0000    0    12.011    2.958108   -0.890438    0.000000
   2 C     6.0000    0    12.011   -2.250173    2.116696    0.000000
   3 H     1.0000    0     1.008    3.697453   -2.824117   -0.000001
   4 H     1.0000    0     1.008    3.620145    0.102588   -1.697716
   5 H     1.0000    0     1.008    3.620147    0.102587    1.697716
   6 H     1.0000    0     1.008   -4.294421    1.789956   -0.000001
   7 H     1.0000    0     1.008   -1.721178    3.186552    1.697721
   8 H     1.0000    0     1.008   -1.721176    3.186550   -1.697721

--------------------------------
INTERNAL COORDINATES (ANGSTROEM)
--------------------------------
 Se     0   0   0     0.000000000000     0.00000000     0.00000000
 C      1   0   0     1.934550870123     0.00000000     0.00000000
 C      1   2   0     1.934465137054   110.68436134     0.00000000
 H      2   1   3     1.095504787820   106.26857606   180.00008153
 H      2   1   3     1.098171360675   110.90414416   298.86957776
 H      2   1   3     1.098171326538   110.90414374    61.13058175
 H      3   1   2     1.095500555057   106.25919841   179.99993149
 H      3   1   2     1.098177518571   110.90553729   298.86873165
 H      3   1   2     1.098177531571   110.90554090    61.13113401

---------------------------
INTERNAL COORDINATES (A.U.)
---------------------------
 Se     0   0   0     0.000000000000     0.00000000     0.00000000
 C      1   0   0     3.655771336672     0.00000000     0.00000000
 C      1   2   0     3.655609324651   110.68436134     0.00000000
 H      2   1   3     2.070204027379   106.26857606   180.00008153
 H      2   1   3     2.075243119792   110.90414416   298.86957776
 H      2   1   3     2.075243055282   110.90414374    61.13058175
 H      3   1   2     2.070196028617   106.25919841   179.99993149
 H      3   1   2     2.075254756529   110.90553729   298.86873165
 H      3   1   2     2.075254781094   110.90554090    61.13113401



           ************************************************************
           *        Program running with 16 parallel MPI-processes    *
           *              working on a common directory               *
           ************************************************************
------------------------------------------------------------------------------
                   ___                                                        
                  /   \      - P O W E R E D   B Y -                         
                 /     \                                                     
                 |  |  |   _    _      __       _____    __    __             
                 |  |  |  | |  | |    /  \     |  _  \  |  |  /  |          
                  \  \/   | |  | |   /    \    | | | |  |  | /  /          
                 / \  \   | |__| |  /  /\  \   | |_| |  |  |/  /          
                |  |  |   |  __  | /  /__\  \  |    /   |      \           
                |  |  |   | |  | | |   __   |  |    \   |  |\   \          
                \     /   | |  | | |  |  |  |  | |\  \  |  | \   \       
                 \___/    |_|  |_| |__|  |__|  |_| \__\ |__|  \__/        
                                                                              
                      - O R C A' S   B I G   F R I E N D -                    
                                      &                                       
                       - I N T E G R A L  F E E D E R -                       
                                                                              
 v1 FN, 2020, v2 2021                                                         
------------------------------------------------------------------------------


Reading SHARK input file me2se_se_tzvp.SHARKINP.tmp ... ok
----------------------
SHARK INTEGRAL PACKAGE
----------------------

Number of atoms                             ...      9
Number of basis functions                   ...    106
Number of shells                            ...     46
Maximum angular momentum                    ...      3
Integral batch strategy                     ... SHARK/LIBINT Hybrid
RI-J (if used) integral strategy            ... SPLIT-RIJ (Revised 2003 algorithm where possible)
Printlevel                                  ...      1
Contraction scheme used                     ... SEGMENTED contraction
Coulomb Range Separation                    ... NOT USED
Exchange Range Separation                   ... NOT USED
Finite Nucleus Model                        ... NOT USED
Auxiliary Coulomb fitting basis             ... AVAILABLE
   # of basis functions in Aux-J            ...    325
   # of shells in Aux-J                     ...    129
   Maximum angular momentum in Aux-J        ...      4
Auxiliary J/K fitting basis                 ... NOT available
Auxiliary Correlation fitting basis         ... NOT available
Auxiliary 'external' fitting basis          ... NOT available
Integral threshold                          ...     2.500000e-11
Primitive cut-off                           ...     2.500000e-12
Primitive pair pre-selection threshold      ...     2.500000e-12

Calculating pre-screening integrals         ... done (  0.0 sec) Dimension = 46
Organizing shell pair data                  ... done (  0.1 sec)
Shell pair information
Total number of shell pairs                 ...      1081
Shell pairs after pre-screening             ...      1071
Total number of primitive shell pairs       ...      4481
Primitive shell pairs kept                  ...      3539
          la=0 lb=0:    295 shell pairs
          la=1 lb=0:    356 shell pairs
          la=1 lb=1:    119 shell pairs
          la=2 lb=0:    144 shell pairs
          la=2 lb=1:     90 shell pairs
          la=2 lb=2:     21 shell pairs
          la=3 lb=0:     24 shell pairs
          la=3 lb=1:     15 shell pairs
          la=3 lb=2:      6 shell pairs
          la=3 lb=3:      1 shell pairs

Calculating one electron integrals          ... done (  0.0 sec)
Calculating RI/J V-Matrix + Cholesky decomp.... done (  0.0 sec)
Calculating Nuclear repulsion               ... done (  0.0 sec) ENN=    186.047917532566 Eh

SHARK setup successfully completed in   0.4 seconds

Maximum memory used throughout the entire GTOINT-calculation: 18.5 MB


           ************************************************************
           *        Program running with 16 parallel MPI-processes    *
           *              working on a common directory               *
           ************************************************************
------------------------------------------------------------------------------
                          ORCA RELATIVISTIC HAMILTONIAN
------------------------------------------------------------------------------

Relativistic Method            ... ZORA(MP)
Treatment of potential         ... Van Wuellen
Nucleus model                  ... Point Nucleus
Speed of light used            ... 137.03598950000000


            *************************************************
            *         ZERO ORDER REGULAR APPROXIMATION      *
            *                     ZORA(MP)                  *
            *            Programmed by FN according to      *
            *                   C. van Wuellen              *
            *       J. Chem. Phys. (1998) vol 109, 392-399  *
            *************************************************

Terms included in model potential: +V(e,N)+V(C)+V(Xa)+V(VWN-V)
Basis function cutoff value   ... 1.000000e-11
Loading the fitted atomic densities (ZORA)   ... done
Calculating the cutoffs                      ... done
Number of fit functions                      ... 79
One center approximation for ZORA is active
Finding unique atoms                  ... 3 atom types
AtomType   0 (Se) Member=  0 NMembers=   1, NRad=2000 NumBF= 48
             ... doing numerical integration
             ... adding submatrices to 1 actual atoms
AtomType   1 (C ) Member=  1 NMembers=   2, NRad=2000 NumBF= 14
             ... doing numerical integration
             ... adding submatrices to 2 actual atoms
AtomType   2 (H ) Member=  3 NMembers=   6, NRad=2000 NumBF=  5
             ... doing numerical integration
             ... adding submatrices to 6 actual atoms
             ... done with one-center part

Maximum memory used throughout the entire REL-calculation: 0.8 MB


           ************************************************************
           *        Program running with 16 parallel MPI-processes    *
           *              working on a common directory               *
           ************************************************************

Diagonalization of the overlap matrix:
Smallest eigenvalue                        ... 5.316e-03
Time for diagonalization                   ...    0.001 sec
Threshold for overlap eigenvalues          ... 1.000e-08
Number of eigenvalues below threshold      ... 0
Time for construction of square roots      ...    0.001 sec
Total time needed                          ...    0.002 sec

-------------------
DFT GRID GENERATION
-------------------

General Integration Accuracy     IntAcc      ... 4.388
Radial Grid Type                 RadialGrid  ... OptM3 with GC (2021)
Angular Grid (max. ang.)         AngularGrid ... 4 (Lebedev-302)
Angular grid pruning method      GridPruning ... 4 (adaptive)
Weight generation scheme         WeightScheme... Becke
Basis function cutoff            BFCut       ... 1.0000e-11
Integration weight cutoff        WCut        ... 1.0000e-14
Angular grids for H and He will be reduced by one unit
Partially contracted basis set               ... off
Rotationally invariant grid construction     ... off

Total number of grid points                  ...    43037
Total number of batches                      ...      677
Average number of points per batch           ...       63
Average number of grid points per atom       ...     4782
Time for grid setup =    0.200 sec

--------------------
COSX GRID GENERATION
--------------------

GRIDX 1
-------
General Integration Accuracy     IntAcc      ... 3.816
Radial Grid Type                 RadialGrid  ... OptM3 with GC (2021)
Angular Grid (max. ang.)         AngularGrid ... 1 (Lebedev-50)
Angular grid pruning method      GridPruning ... 4 (adaptive)
Weight generation scheme         WeightScheme... Becke
Basis function cutoff            BFCut       ... 1.0000e-11
Integration weight cutoff        WCut        ... 1.0000e-14
Angular grids for H and He will be reduced by one unit
Partially contracted basis set               ... on
Rotationally invariant grid construction     ... off

Total number of grid points                  ...     5372
Total number of batches                      ...       89
Average number of points per batch           ...       60
Average number of grid points per atom       ...      597
UseSFitting                                  ... on

GRIDX 2
-------
General Integration Accuracy     IntAcc      ... 4.020
Radial Grid Type                 RadialGrid  ... OptM3 with GC (2021)
Angular Grid (max. ang.)         AngularGrid ... 2 (Lebedev-110)
Angular grid pruning method      GridPruning ... 4 (adaptive)
Weight generation scheme         WeightScheme... Becke
Basis function cutoff            BFCut       ... 1.0000e-11
Integration weight cutoff        WCut        ... 1.0000e-14
Angular grids for H and He will be reduced by one unit
Partially contracted basis set               ... on
Rotationally invariant grid construction     ... off

Total number of grid points                  ...    11107
Total number of batches                      ...      179
Average number of points per batch           ...       62
Average number of grid points per atom       ...     1234
UseSFitting                                  ... on

GRIDX 3
-------
General Integration Accuracy     IntAcc      ... 4.338
Radial Grid Type                 RadialGrid  ... OptM3 with GC (2021)
Angular Grid (max. ang.)         AngularGrid ... 3 (Lebedev-194)
Angular grid pruning method      GridPruning ... 4 (adaptive)
Weight generation scheme         WeightScheme... Becke
Basis function cutoff            BFCut       ... 1.0000e-11
Integration weight cutoff        WCut        ... 1.0000e-14
Angular grids for H and He will be reduced by one unit
Partially contracted basis set               ... on
Rotationally invariant grid construction     ... off

Total number of grid points                  ...    24595
Total number of batches                      ...      389
Average number of points per batch           ...       63
Average number of grid points per atom       ...     2733
UseSFitting                                  ... on

Time for X-Grid setup             =    0.107 sec

--------------
SCF ITERATIONS
--------------
ITER       Energy         Delta-E        Max-DP      RMS-DP      [F,P]     Damp
               ***  Starting incremental Fock matrix formation  ***
  0  -2521.9312016292   0.000000000000 0.00372300  0.00020137  0.2357399 0.7000
                      *** Initiating the SOSCF procedure ***
                      *** Re-Reading the Fockian *** 
                      *** Removing any level shift *** 
ITER      Energy       Delta-E        Grad      Rot      Max-DP    RMS-DP
  1  -2521.93194090  -0.0007392703  0.002514  0.002514  0.011891  0.000628
               *** Restarting incremental Fock matrix formation ***
  2  -2521.93388396  -0.0019430627  0.001711  0.003515  0.003354  0.000178
  3  -2521.93393524  -0.0000512811  0.000697  0.001046  0.002049  0.000082
  4  -2521.93394280  -0.0000075597  0.000396  0.000524  0.000886  0.000036
  5  -2521.93394616  -0.0000033524  0.000105  0.000140  0.000144  0.000008
  6  -2521.93394629  -0.0000001322  0.000043  0.000041  0.000103  0.000004
  7  -2521.93394634  -0.0000000541  0.000007  0.000008  0.000027  0.000001
  8  -2521.93394634   0.0000000035  0.000006  0.000003  0.000011  0.000000
                  ***Gradient check signals convergence***
              ***Rediagonalizing the Fockian in SOSCF/NRSCF***

               *****************************************************
               *                     SUCCESS                       *
               *           SCF CONVERGED AFTER   9 CYCLES          *
               *****************************************************

Old exchange energy                            =    -24.538547974 Eh
New exchange energy                            =    -24.538555841 Eh
Exchange energy change after final integration =     -0.000007867 Eh
Total energy after final integration           =  -2521.933954208 Eh
Final COS-X integration done in                =     0.161 sec
Total Energy       :        -2521.93395421 Eh          -68625.31174 eV
  Last Energy change         ...   -2.8422e-09  Tolerance :   1.0000e-08
  Last MAX-Density change    ...    6.6613e-15  Tolerance :   1.0000e-07
             **** THE GBW FILE WAS UPDATED (me2se_se_tzvp.gbw) ****
             **** DENSITY me2se_se_tzvp.scfp WAS UPDATED ****
             **** ENERGY FILE WAS UPDATED (me2se_se_tzvp.en.tmp) ****
             **** THE GBW FILE WAS UPDATED (me2se_se_tzvp.gbw) ****
             **** DENSITY me2se_se_tzvp.scfp WAS UPDATED ****
Total SCF time: 0 days 0 hours 0 min 1 sec 

Maximum memory used throughout the entire SCF-calculation: 61.1 MB

-------------------------   --------------------
FINAL SINGLE POINT ENERGY     -2521.933954208434
-------------------------   --------------------



           ************************************************************
           *        Program running with 16 parallel MPI-processes    *
           *              working on a common directory               *
           ************************************************************
------------------------------------------------------------------------------
                         ORCA SCF GRADIENT CALCULATION
------------------------------------------------------------------------------

 ... reading COSX grid (gridx3)
Gradient of the Kohn-Sham DFT energy:
Kohn-Sham wavefunction type      ... RKS
Hartree-Fock exchange scaling    ...    0.250
Number of operators              ...    1
Number of atoms                  ...    9
Basis set dimensions             ...  106
Integral neglect threshold       ... 2.5e-11
Integral primitive cutoff        ... 2.5e-12
SHARK Integral package           ... ON

Nuc. rep. gradient       (SHARK) ... done (  0.0 sec)
HCore & Overlap gradient (SHARK) ... done (  0.0 sec)
RI-J gradient            (SHARK) ... done (  0.1 sec)
COSX-gradient                    ... done (  0.2 sec)
Exchange-correlation gradient    ... done

------------------
CARTESIAN GRADIENT
------------------

   1   Se  :    0.012111878    0.021096975   -0.000000090
   2   C   :    0.001360528   -0.018578165    0.000000009
   3   C   :   -0.016799134   -0.008184360    0.000000072
   4   H   :    0.003052935    0.002168020   -0.000000001
   5   H   :   -0.001405245    0.000736335   -0.000007227
   6   H   :   -0.001405262    0.000736327    0.000007216
   7   H   :    0.000325263    0.003699283   -0.000000006
   8   H   :    0.001330993   -0.000861913    0.000001598
   9   H   :    0.001330985   -0.000861901   -0.000001595

Difference to translation invariance:
           :   -0.0000970600   -0.0000493981   -0.0000000244

Difference to rotation invariance:
           :    0.0000002462    0.0000001001    0.0004185626

Norm of the cartesian gradient     ...    0.0364121932
RMS gradient                       ...    0.0070075299
MAX gradient                       ...    0.0210969750

-------
TIMINGS
-------

[...]

-----------------------
VIBRATIONAL FREQUENCIES
-----------------------

Scaling factor for frequencies =  1.000000000  (already applied!)

   0:         0.00 cm**-1
   1:         0.00 cm**-1
   2:         0.00 cm**-1
   3:         0.00 cm**-1
   4:         0.00 cm**-1
   5:         0.00 cm**-1
   6:       160.76 cm**-1
   7:       166.77 cm**-1
   8:       217.67 cm**-1
   9:       619.96 cm**-1
  10:       633.66 cm**-1
  11:       849.77 cm**-1
  12:       888.55 cm**-1
  13:       919.65 cm**-1
  14:       972.49 cm**-1
  15:      1283.13 cm**-1
  16:      1305.10 cm**-1
  17:      1426.94 cm**-1
  18:      1435.64 cm**-1
  19:      1441.80 cm**-1
  20:      1449.50 cm**-1
  21:      3065.10 cm**-1
  22:      3068.49 cm**-1
  23:      3180.13 cm**-1
  24:      3186.62 cm**-1
  25:      3192.70 cm**-1
  26:      3193.85 cm**-1


------------
NORMAL MODES
------------

These modes are the Cartesian displacements weighted by the diagonal matrix
M(i,i)=1/sqrt(m[i]) where m[i] is the mass of the displaced atom
Thus, these vectors are normalized but *not* orthogonal

                  0          1          2          3          4          5    
      0       0.000000   0.000000   0.000000   0.000000   0.000000   0.000000
      1       0.000000   0.000000   0.000000   0.000000   0.000000   0.000000
      2       0.000000   0.000000   0.000000   0.000000   0.000000   0.000000
      3       0.000000   0.000000   0.000000   0.000000   0.000000   0.000000
      4       0.000000   0.000000   0.000000   0.000000   0.000000   0.000000
      5       0.000000   0.000000   0.000000   0.000000   0.000000   0.000000
      6       0.000000   0.000000   0.000000   0.000000   0.000000   0.000000
      7       0.000000   0.000000   0.000000   0.000000   0.000000   0.000000
      8       0.000000   0.000000   0.000000   0.000000   0.000000   0.000000
      9       0.000000   0.000000   0.000000   0.000000   0.000000   0.000000
     10       0.000000   0.000000   0.000000   0.000000   0.000000   0.000000
     11       0.000000   0.000000   0.000000   0.000000   0.000000   0.000000
     12       0.000000   0.000000   0.000000   0.000000   0.000000   0.000000
     13       0.000000   0.000000   0.000000   0.000000   0.000000   0.000000
     14       0.000000   0.000000   0.000000   0.000000   0.000000   0.000000
     15       0.000000   0.000000   0.000000   0.000000   0.000000   0.000000
     16       0.000000   0.000000   0.000000   0.000000   0.000000   0.000000
     17       0.000000   0.000000   0.000000   0.000000   0.000000   0.000000
     18       0.000000   0.000000   0.000000   0.000000   0.000000   0.000000
     19       0.000000   0.000000   0.000000   0.000000   0.000000   0.000000
     20       0.000000   0.000000   0.000000   0.000000   0.000000   0.000000
     21       0.000000   0.000000   0.000000   0.000000   0.000000   0.000000
     22       0.000000   0.000000   0.000000   0.000000   0.000000   0.000000
     23       0.000000   0.000000   0.000000   0.000000   0.000000   0.000000
     24       0.000000   0.000000   0.000000   0.000000   0.000000   0.000000
     25       0.000000   0.000000   0.000000   0.000000   0.000000   0.000000
     26       0.000000   0.000000   0.000000   0.000000   0.000000   0.000000
                  6          7          8          9         10         11    
      0      -0.000001  -0.000000  -0.031824  -0.045395   0.090295  -0.002102
      1      -0.000001   0.000000  -0.055122  -0.075015  -0.053937   0.001188
      2       0.016602  -0.000862  -0.000001  -0.000001   0.000000  -0.000000
      3      -0.000001   0.000000  -0.083087   0.374972  -0.357793  -0.006227
      4       0.000004   0.000000   0.222965   0.053679  -0.055804  -0.082915
      5      -0.038806  -0.036228   0.000003   0.000002  -0.000002  -0.000000
      6       0.000004   0.000000   0.234661  -0.136532  -0.135657   0.068696
      7       0.000001  -0.000000   0.039573   0.339616   0.350117   0.047034
      8      -0.034805   0.040033   0.000003   0.000002   0.000002   0.000000
      9       0.000005  -0.000002   0.161242   0.420130  -0.414371   0.482777
     10       0.000006   0.000001   0.356981   0.075454  -0.087739   0.185786
     11      -0.448987   0.404023   0.000021   0.000002  -0.000002   0.000003
     12      -0.118534   0.070565  -0.228116   0.295817  -0.270091  -0.311015
     13       0.309324  -0.360921   0.303135   0.078017  -0.100133   0.120964
     14       0.116346  -0.239036   0.003810  -0.008091   0.002633   0.034646
     15       0.118524  -0.070563  -0.228128   0.295819  -0.270091  -0.311019
     16      -0.309313   0.360922   0.303159   0.078017  -0.100133   0.120962
     17       0.116348  -0.239038  -0.003817   0.008093  -0.002637  -0.034648
     18       0.000001  -0.000003   0.228740  -0.140276  -0.136461   0.080153
     19       0.000006  -0.000000   0.318192   0.388389   0.417555  -0.511484
     20      -0.488927  -0.355514   0.000024  -0.000001   0.000000  -0.000003
     21      -0.361841  -0.312232   0.376540  -0.078376  -0.051157  -0.260296
     22      -0.064243  -0.113331  -0.045955   0.284947   0.294306   0.209135
     23       0.140922   0.225866  -0.003842   0.007930   0.002865   0.034737
     24       0.361858   0.312235   0.376507  -0.078372  -0.051155  -0.260295
     25       0.064241   0.113330  -0.045957   0.284945   0.294305   0.209123
     26       0.140916   0.225861   0.003831  -0.007927  -0.002863  -0.034736
                 12         13         14         15         16         17    
      0      -0.000000   0.000000  -0.009193  -0.001714   0.000554  -0.000000
      1       0.000000   0.000000  -0.015945   0.000993   0.000943   0.000000
      2      -0.000003  -0.014270  -0.000000  -0.000000   0.000000   0.000018
      3       0.000000  -0.000001  -0.015923  -0.085936   0.085278   0.000000
      4       0.000001  -0.000000   0.107702  -0.012670   0.014809   0.000001
      5      -0.079274   0.083891   0.000001  -0.000001   0.000001  -0.044102
      6       0.000000   0.000000   0.101133  -0.032065  -0.029763  -0.000001
      7      -0.000001  -0.000001   0.040152   0.080877   0.081184  -0.000001
      8       0.079328   0.083890   0.000000   0.000001   0.000000   0.044965
      9      -0.000005   0.000002  -0.499362   0.362291  -0.368031  -0.000000
     10      -0.000001   0.000000  -0.157660   0.217535  -0.217836   0.000002
     11       0.173992  -0.154798  -0.000003   0.000002  -0.000002   0.510522
     12       0.440101  -0.438525   0.300596   0.377816  -0.374245  -0.236034
     13       0.136984  -0.147658  -0.121382  -0.029749   0.024903   0.236725
     14       0.138618  -0.142906  -0.044803   0.113977  -0.120262   0.044663
     15      -0.440097   0.438525   0.300602   0.377817  -0.374246   0.236030
     16      -0.136987   0.147659  -0.121379  -0.029750   0.024903  -0.236736
     17       0.138615  -0.142903   0.044805  -0.113973   0.120257   0.044674
     18      -0.000002  -0.000002   0.112698  -0.007628  -0.004979  -0.000005
     19       0.000004   0.000006  -0.511195  -0.422613  -0.426726  -0.000004
     20      -0.174403  -0.155101  -0.000002  -0.000001  -0.000001  -0.520727
     21      -0.101247  -0.091156  -0.254897   0.215017   0.208314   0.329494
     22       0.449703   0.453437   0.199449  -0.312959  -0.311482  -0.088014
     23      -0.138615  -0.142849   0.044857   0.114132   0.120196  -0.045442
     24       0.101249   0.091159  -0.254898   0.215014   0.208312  -0.329482
     25      -0.449706  -0.453441   0.199444  -0.312959  -0.311483   0.088026
     26      -0.138618  -0.142851  -0.044854  -0.114138  -0.120201  -0.045424
                 18         19         20         21         22         23    
      0       0.000000   0.000859  -0.001067  -0.000049   0.000091  -0.000000
      1       0.000000  -0.000490  -0.001855  -0.000082  -0.000055  -0.000000
      2      -0.001716   0.000000  -0.000000   0.000000  -0.000000  -0.000088
      3       0.000000   0.002848   0.003980   0.031269  -0.029995  -0.000000
      4      -0.000000  -0.047010  -0.042583   0.009107  -0.008741  -0.000000
      5      -0.045423   0.000000  -0.000001   0.000000  -0.000000   0.068359
      6       0.000002   0.042369  -0.038655  -0.007370  -0.007700   0.000000
      7       0.000001   0.021085  -0.017701   0.030325   0.031713  -0.000000
      8      -0.044508   0.000002  -0.000001   0.000000   0.000000   0.067466
      9      -0.000002  -0.182811  -0.203523  -0.171755   0.164910  -0.000001
     10       0.000001  -0.136163  -0.142631   0.334669  -0.323028   0.000002
     11       0.523892  -0.000005   0.000012  -0.000001   0.000001   0.009793
     12      -0.238218   0.068582   0.074845  -0.099348   0.092523   0.122536
     13       0.241094   0.376665   0.375296  -0.219961   0.211275   0.259673
     14       0.042610   0.273860   0.270325   0.362275  -0.346078  -0.410422
     15       0.238217   0.068581   0.074859  -0.099344   0.092520  -0.122531
     16      -0.241095   0.376668   0.375284  -0.219963   0.211276  -0.259672
     17       0.042614  -0.273860  -0.270323  -0.362276   0.346078  -0.410421
     18       0.000006   0.026809  -0.021801   0.359386   0.377669   0.000003
     19       0.000012   0.227759  -0.246335   0.017499   0.019194   0.000000
     20       0.513560  -0.000023   0.000016  -0.000003  -0.000003   0.009583
     21      -0.321477  -0.293612   0.286160  -0.134935  -0.142801  -0.161575
     22       0.084311  -0.248828   0.251005  -0.187852  -0.194067  -0.232881
     23       0.041669   0.275286  -0.268890  -0.347140  -0.361504  -0.405046
     24       0.321446  -0.293645   0.286185  -0.134929  -0.142795   0.161569
     25      -0.084338  -0.248820   0.250999  -0.187853  -0.194068   0.232884
     26       0.041634  -0.275286   0.268889   0.347141   0.361506  -0.405051
                 24         25         26    
      0       0.000000   0.000012   0.000066
      1       0.000000  -0.000019  -0.000035
      2      -0.000000  -0.000000  -0.000000
      3       0.000000   0.016057   0.009147
      4       0.000000  -0.079478  -0.047334
      5      -0.067557   0.000000  -0.000000
      6      -0.000000  -0.045933   0.076664
      7      -0.000000  -0.015184   0.026061
      8       0.068446  -0.000000   0.000000
      9       0.000001  -0.344252  -0.206136
     10      -0.000002   0.645084   0.382767
     11      -0.010900  -0.000003  -0.000002
     12      -0.117920   0.078871   0.045956
     13      -0.257263   0.149448   0.090690
     14       0.405331  -0.264195  -0.158349
     15       0.117915   0.078869   0.045956
     16       0.257263   0.149450   0.090694
     17       0.405330   0.264197   0.158355
     18       0.000008   0.436179  -0.730172
     19       0.000000   0.015081  -0.022472
     20       0.010963  -0.000004   0.000006
     21      -0.166084   0.052688  -0.091658
     22      -0.233793   0.085179  -0.142751
     23      -0.410643   0.156829  -0.264656
     24       0.166079   0.052683  -0.091650
     25       0.233797   0.085177  -0.142747
     26      -0.410651  -0.156825   0.264648


-----------
IR SPECTRUM
-----------

 Mode   freq       eps      Int      T**2         TX        TY        TZ
       cm**-1   L/(mol*cm) km/mol    a.u.
----------------------------------------------------------------------------
  6:    160.76   0.000078    0.40  0.000152  (-0.000000  0.000000 -0.012332)
  7:    166.77   0.000000    0.00  0.000000  (-0.000000  0.000000  0.000642)
  8:    217.67   0.000012    0.06  0.000017  ( 0.002087  0.003588  0.000000)
  9:    619.96   0.000021    0.11  0.000011  ( 0.001436  0.002910 -0.000000)
 10:    633.66   0.000340    1.72  0.000167  ( 0.011238 -0.006401 -0.000000)
 11:    849.77   0.000171    0.86  0.000063  (-0.006874  0.003925 -0.000000)
 12:    888.55   0.000000    0.00  0.000000  (-0.000000  0.000000  0.000012)
 13:    919.65   0.003178   16.06  0.001078  ( 0.000000  0.000000 -0.032840)
 14:    972.49   0.003939   19.90  0.001264  (-0.017769 -0.030792 -0.000000)
 15:   1283.13   0.001308    6.61  0.000318  (-0.015462  0.008884 -0.000000)
 16:   1305.10   0.000438    2.22  0.000105  ( 0.005134  0.008858 -0.000000)
 17:   1426.94   0.000000    0.00  0.000000  ( 0.000000 -0.000000 -0.000311)
 18:   1435.64   0.002726   13.78  0.000593  (-0.000001  0.000000  0.024344)
 19:   1441.80   0.003519   17.78  0.000762  (-0.023894  0.013809 -0.000001)
 20:   1449.50   0.000140    0.71  0.000030  ( 0.002666  0.004789  0.000001)
 21:   3065.10   0.003744   18.92  0.000381  ( 0.010067  0.016728  0.000000)
 22:   3068.49   0.003553   17.96  0.000361  (-0.016262  0.009844 -0.000000)
 23:   3180.13   0.001385    7.00  0.000136  (-0.000000 -0.000000  0.011660)
 24:   3186.62   0.000000    0.00  0.000000  ( 0.000000 -0.000000  0.000068)
 25:   3192.70   0.000782    3.95  0.000076  (-0.004039 -0.007754 -0.000000)
 26:   3193.85   0.000082    0.41  0.000008  ( 0.002632  0.001031  0.000000)

* The epsilon (eps) is given for a Dirac delta lineshape.
** The dipole moment derivative (T) already includes vibrational overlap.

The first frequency considered to be a vibration is 6
The total number of vibrations considered is 21


--------------------------
THERMOCHEMISTRY AT 298.15K
--------------------------

Temperature         ... 298.15 K
Pressure            ... 1.00 atm
Total Mass          ... 109.03 AMU

Throughout the following assumptions are being made:
  (1) The electronic state is orbitally nondegenerate
  (2) There are no thermally accessible electronically excited states
  (3) Hindered rotations indicated by low frequency modes are not
      treated as such but are treated as vibrations and this may
      cause some error
  (4) All equations used are the standard statistical mechanics
      equations for an ideal gas
  (5) All vibrations are strictly harmonic

freq.     160.76  E(vib)   ...       0.39 
freq.     166.77  E(vib)   ...       0.39 
freq.     217.67  E(vib)   ...       0.33 
freq.     619.96  E(vib)   ...       0.09 
freq.     633.66  E(vib)   ...       0.09 
freq.     849.77  E(vib)   ...       0.04 
freq.     888.55  E(vib)   ...       0.04 
freq.     919.65  E(vib)   ...       0.03 
freq.     972.49  E(vib)   ...       0.03 
freq.    1283.13  E(vib)   ...       0.01 
freq.    1305.10  E(vib)   ...       0.01 
freq.    1426.94  E(vib)   ...       0.00 
freq.    1435.64  E(vib)   ...       0.00 
freq.    1441.80  E(vib)   ...       0.00 
freq.    1449.50  E(vib)   ...       0.00 
freq.    3065.10  E(vib)   ...       0.00 
freq.    3068.49  E(vib)   ...       0.00 
freq.    3180.13  E(vib)   ...       0.00 
freq.    3186.62  E(vib)   ...       0.00 
freq.    3192.70  E(vib)   ...       0.00 
freq.    3193.85  E(vib)   ...       0.00 

------------
INNER ENERGY
------------

The inner energy is: U= E(el) + E(ZPE) + E(vib) + E(rot) + E(trans)
    E(el)   - is the total energy from the electronic structure calculation
              = E(kin-el) + E(nuc-el) + E(el-el) + E(nuc-nuc)
    E(ZPE)  - the the zero temperature vibrational energy from the frequency calculation
    E(vib)  - the the finite temperature correction to E(ZPE) due to population
              of excited vibrational states
    E(rot)  - is the rotational thermal energy
    E(trans)- is the translational thermal energy

Summary of contributions to the inner energy U:
Electronic energy                ...  -2521.93926134 Eh
Zero point energy                ...      0.07440108 Eh      46.69 kcal/mol
Thermal vibrational correction   ...      0.00232585 Eh       1.46 kcal/mol
Thermal rotational correction    ...      0.00141627 Eh       0.89 kcal/mol
Thermal translational correction ...      0.00141627 Eh       0.89 kcal/mol
-----------------------------------------------------------------------
Total thermal energy                  -2521.85970187 Eh


Summary of corrections to the electronic energy:
(perhaps to be used in another calculation)
Total thermal correction                  0.00515839 Eh       3.24 kcal/mol
Non-thermal (ZPE) correction              0.07440108 Eh      46.69 kcal/mol
-----------------------------------------------------------------------
Total correction                          0.07955947 Eh      49.92 kcal/mol


--------
ENTHALPY
--------

The enthalpy is H = U + kB*T
                kB is Boltzmann's constant
Total free energy                 ...  -2521.85970187 Eh 
Thermal Enthalpy correction       ...      0.00094421 Eh       0.59 kcal/mol
-----------------------------------------------------------------------
Total Enthalpy                    ...  -2521.85875766 Eh


Note: Rotational entropy computed according to Herzberg 
Infrared and Raman Spectra, Chapter V,1, Van Nostrand Reinhold, 1945 
Point Group:  Cs, Symmetry Number:   1  
Rotational constants in cm-1:     0.385579     0.229873     0.152546 

Vibrational entropy computed according to the QRRHO of S. Grimme
Chem.Eur.J. 2012 18 9955


-------
ENTROPY
-------

The entropy contributions are T*S = T*(S(el)+S(vib)+S(rot)+S(trans))
     S(el)   - electronic entropy
     S(vib)  - vibrational entropy
     S(rot)  - rotational entropy
     S(trans)- translational entropy
The entropies will be listed as multiplied by the temperature to get
units of energy

Electronic entropy                ...      0.00000000 Eh      0.00 kcal/mol
Vibrational entropy               ...      0.00401062 Eh      2.52 kcal/mol
Rotational entropy                ...      0.01154246 Eh      7.24 kcal/mol
Translational entropy             ...      0.01899368 Eh     11.92 kcal/mol
-----------------------------------------------------------------------
Final entropy term                ...      0.03454676 Eh     21.68 kcal/mol

In case the symmetry of your molecule has not been determined correctly
or in case you have a reason to use a different symmetry number we print 
out the resulting rotational entropy values for sn=1,12 :
 --------------------------------------------------------
|  sn= 1 | S(rot)=       0.01154246 Eh      7.24 kcal/mol|
|  sn= 2 | S(rot)=       0.01088801 Eh      6.83 kcal/mol|
|  sn= 3 | S(rot)=       0.01050517 Eh      6.59 kcal/mol|
|  sn= 4 | S(rot)=       0.01023355 Eh      6.42 kcal/mol|
|  sn= 5 | S(rot)=       0.01002286 Eh      6.29 kcal/mol|
|  sn= 6 | S(rot)=       0.00985072 Eh      6.18 kcal/mol|
|  sn= 7 | S(rot)=       0.00970517 Eh      6.09 kcal/mol|
|  sn= 8 | S(rot)=       0.00957909 Eh      6.01 kcal/mol|
|  sn= 9 | S(rot)=       0.00946789 Eh      5.94 kcal/mol|
|  sn=10 | S(rot)=       0.00936841 Eh      5.88 kcal/mol|
|  sn=11 | S(rot)=       0.00927842 Eh      5.82 kcal/mol|
|  sn=12 | S(rot)=       0.00919626 Eh      5.77 kcal/mol|
 --------------------------------------------------------


-------------------
GIBBS FREE ENERGY
-------------------

The Gibbs free energy is G = H - T*S

Total enthalpy                    ...  -2521.85875766 Eh 
Total entropy correction          ...     -0.03454676 Eh    -21.68 kcal/mol
-----------------------------------------------------------------------
Final Gibbs free energy         ...  -2521.89330442 Eh

For completeness - the Gibbs free energy minus the electronic energy
G-E(el)                           ...      0.04595692 Eh     28.84 kcal/mol


Timings for individual modules:

Sum of individual times         ...       39.808 sec (=   0.663 min)
GTO integral calculation        ...        3.716 sec (=   0.062 min)   9.3 %
Relativistic integrals          ...        2.079 sec (=   0.035 min)   5.2 %
SCF iterations                  ...       15.675 sec (=   0.261 min)  39.4 %
EPR/NMR calculation             ...        2.143 sec (=   0.036 min)   5.4 %
SCF Gradient evaluation         ...        6.599 sec (=   0.110 min)  16.6 %
Geometry relaxation             ...        0.171 sec (=   0.003 min)   0.4 %
Analytical frequency calculation...        9.426 sec (=   0.157 min)  23.7 %
                             ****ORCA TERMINATED NORMALLY****
TOTAL RUN TIME: 0 days 0 hours 0 minutes 41 seconds 814 msec
